 Gaussian 09, Revision D.01,
 Gaussian 09:  ES64L-G09RevD.01 24-Apr-2013

 ----------------------------------------------------------------------
 #p opt=verytight freq=(raman,savenormalmodes) b3lyp/6-311+g(d,p) nosym
 m guess=save scf=(xqc,tight)
 ----------------------------------------------------------------------

 ------
 Alb FB
 ------
 Symbolic Z-matrix:
 Charge =  0 Multiplicity = 1

 SCF Done:  E(RB3LYP) =  -788.673643156     A.U. after   15 cycles
 SCF Done:  E(RB3LYP) =  -788.674314339     A.U. after   12 cycles
 SCF Done:  E(RB3LYP) =  -788.674398384     A.U. after   11 cycles
 SCF Done:  E(RB3LYP) =  -788.674411345     A.U. after   10 cycles
 SCF Done:  E(RB3LYP) =  -788.674414947     A.U. after   10 cycles
 SCF Done:  E(RB3LYP) =  -788.674415762     A.U. after    9 cycles
 SCF Done:  E(RB3LYP) =  -788.674416185     A.U. after    8 cycles
 SCF Done:  E(RB3LYP) =  -788.674416414     A.U. after    9 cycles
 SCF Done:  E(RB3LYP) =  -788.674416629     A.U. after    9 cycles
 SCF Done:  E(RB3LYP) =  -788.674416929     A.U. after    9 cycles
 SCF Done:  E(RB3LYP) =  -788.674418132     A.U. after    8 cycles
 SCF Done:  E(RB3LYP) =  -788.674418135     A.U. after    7 cycles
 SCF Done:  E(RB3LYP) =  -788.674418137     A.U. after    7 cycles
 SCF Done:  E(RB3LYP) =  -788.674418138     A.U. after    6 cycles
 SCF Done:  E(RB3LYP) =  -788.674418138     A.U. after    5 cycles
 SCF Done:  E(RB3LYP) =  -788.674418138     A.U. after    5 cycles
 SCF Done:  E(RB3LYP) =  -788.674418138     A.U. after    4 cycles
 SCF Done:  E(RB3LYP) =  -788.674418138     A.U. after    3 cycles
 SCF Done:  E(RB3LYP) =  -788.674418138     A.U. after    4 cycles
 Optimization completed.
    -- Stationary point found.
 Normal termination of Gaussian 09 at Fri Aug 19 09:28:20 2022.

 ----------------------------------------------------------------------
 #P Geom=AllCheck Guess=TCheck SCRF=Check GenChk RB3LYP/6-311+G(d,p) Fr
 eq
 ----------------------------------------------------------------------

 Structure from the checkpoint file:  "Albuterol.chk"
 ------
 Alb FB
 ------
 Charge =  0 Multiplicity = 1

                          Input orientation:
 ---------------------------------------------------------------------
 Center     Atomic      Atomic             Coordinates (Angstroms)
 Number     Number       Type             X           Y           Z
 ---------------------------------------------------------------------
      1          6           0        2.530958   -0.682328   -0.371852
      2          1           0        3.424915   -1.280340   -0.170055
      3          1           0        2.744664   -0.035556   -1.228706
      4          1           0        1.733367   -1.372302   -0.659357
      5          6           0        2.140942    0.160196    0.864259
      6          6           0        3.312565    1.082177    1.238028
      7          1           0        3.547718    1.766898    0.416126
      8          1           0        4.213124    0.501590    1.455787
      9          1           0        3.059929    1.681209    2.116048
     10          6           0        1.829996   -0.767927    2.050244
     11          1           0        2.713684   -1.354444    2.316313
     12          1           0        1.028676   -1.473361    1.815284
     13          1           0        1.526543   -0.182150    2.921484
     14          7           0        0.982574    1.048303    0.618738
     15          1           0        1.241757    1.759735   -0.058074
     16          6           0       -0.272840    0.445729    0.186275
     17          1           0       -0.647448   -0.223787    0.964534
     18          1           0       -0.194465   -0.142828   -0.742742
     19          6           0       -1.323810    1.533938   -0.041394
     20          1           0       -1.395368    2.127670    0.877913
     21          6           0       -2.688052    0.959523   -0.371553
     22          6           0       -3.683668    0.900063    0.609457
     23          1           0       -3.494499    1.293831    1.600993
     24          6           0       -4.935296    0.344663    0.353470
     25          6           0       -5.190138   -0.158778   -0.928069
     26          6           0       -4.215104   -0.101979   -1.920991
     27          1           0       -4.430889   -0.491234   -2.912249
     28          6           0       -2.968988    0.453734   -1.642282
     29          1           0       -2.216347    0.506306   -2.420148
     30          8           0       -6.436844   -0.695870   -1.146849
     31          1           0       -6.502834   -1.003890   -2.056554
     32          6           0       -6.020849    0.275270    1.397956
     33          1           0       -6.284167   -0.775917    1.577397
     34          1           0       -6.923502    0.770958    1.017065
     35          8           0       -5.570289    0.896340    2.599782
     36          1           0       -6.248640    0.787273    3.271619
     37          8           0       -0.810914    2.360021   -1.103168
     38          1           0       -1.412641    3.100679   -1.230519
 ---------------------------------------------------------------------

 SCF Done:  E(RB3LYP) =  -788.674418138     A.U. after    1 cycles

 Alpha  occ. eigenvalues --  -19.16549 -19.13287 -19.12495 -14.28352 -10.24105
 Alpha  occ. eigenvalues --  -10.22863 -10.22408 -10.20272 -10.18607 -10.18449
 Alpha  occ. eigenvalues --  -10.18062 -10.17762 -10.17628 -10.17422 -10.15126
 Alpha  occ. eigenvalues --  -10.15092 -10.15048  -1.07501  -1.03485  -1.02664
 Alpha  occ. eigenvalues --   -0.90064  -0.86381  -0.79171  -0.77709  -0.76035
 Alpha  occ. eigenvalues --   -0.70532  -0.68562  -0.68278  -0.68219  -0.63646
 Alpha  occ. eigenvalues --   -0.61393  -0.57838  -0.55414  -0.54819  -0.53134
 Alpha  occ. eigenvalues --   -0.51638  -0.49811  -0.47060  -0.46744  -0.46487
 Alpha  occ. eigenvalues --   -0.45321  -0.44227  -0.43529  -0.43116  -0.42046
 Alpha  occ. eigenvalues --   -0.41775  -0.41261  -0.40863  -0.39159  -0.38241
 Alpha  occ. eigenvalues --   -0.37447  -0.37170  -0.36148  -0.35640  -0.35377
 Alpha  occ. eigenvalues --   -0.35036  -0.34028  -0.33353  -0.32503  -0.31968
 Alpha  occ. eigenvalues --   -0.29340  -0.28558  -0.25607  -0.22835  -0.21734
 Alpha virt. eigenvalues --   -0.01744  -0.01046  -0.00846  -0.00390   0.00472
 Alpha virt. eigenvalues --    0.01237   0.02031   0.02649   0.03158   0.03942
 Alpha virt. eigenvalues --    0.04239   0.04606   0.04817   0.05538   0.05908

 Mulliken charges:
               1
     1  C   -0.389906
     2  H    0.136924
     3  H    0.141124
     4  H    0.134634
     5  C   -0.181442
     6  C   -0.452889
     7  H    0.132516
     8  H    0.135328
     9  H    0.153398
    10  C   -0.354442
    11  H    0.133907
    12  H    0.129276
    13  H    0.149487
    14  N    0.054715
    15  H    0.212470
    16  C   -0.550643
    17  H    0.135609
    18  H    0.126936
    19  C    0.091515
    20  H    0.136685
    21  C    0.458887
    22  C   -0.241939
    23  H    0.137768
    24  C    0.338214
    25  C   -0.944306
    26  C   -0.000636
    27  H    0.102410
    28  C   -0.438211
    29  H    0.139632
    30  O   -0.259464
    31  H    0.249917
    32  C    0.152882
    33  H    0.159490
    34  H    0.158738
    35  O   -0.307225
    36  H    0.248430
    37  O   -0.276520
    38  H    0.246734
 Sum of Mulliken charges =   0.00000

 Dipole moment (field-independent basis, Debye):
    X=             -2.4383    Y=             -1.1108    Z=             -1.0897  Tot=              2.8925
 Quadrupole moment (field-independent basis, Debye-Ang):
   XX=            -84.7277   YY=           -105.2770   ZZ=            -98.0073
   XY=              2.1635   XZ=              2.0330   YZ=              0.3435

  Exact polarizability: 222.605  16.086 141.810   1.380   9.076 173.366
 Approx polarizability: 283.848  28.495 216.348  -5.721  18.588 267.333

                      1                      2                      3
                      A                      A                      A
 Frequencies --     17.0711                27.0077                44.0467
 Red. masses --      3.9175                 3.3837                 4.4519
 Frc consts  --      0.0007                 0.0015                 0.0051
 IR Inten    --      0.2090                 0.1670                 5.4015
 Raman Activ --      1.3633                 0.2118                 2.3790

                      4                      5                      6
                      A                      A                      A
 Frequencies --     55.3736                70.0022               115.8979
 Red. masses --      3.2819                 3.2765                 2.9264
 Frc consts  --      0.0059                 0.0095                 0.0232
 IR Inten    --     14.5092                 0.3256                 0.2194
 Raman Activ --      2.8623                 0.5680                 0.3797

                      7                      8                      9
                      A                      A                      A
 Frequencies --    132.5145               156.4926               163.3351
 Red. masses --      4.2815                 1.2744                 2.7147
 Frc consts  --      0.0443                 0.0184                 0.0427
 IR Inten    --      4.3968               100.4020                13.4488
 Raman Activ --      0.3458                 0.5336                 0.4388

                     10                     11                     12
                      A                      A                      A
 Frequencies --    184.4272               207.5668               219.0801
 Red. masses --      2.5257                 2.8226                 1.2679
 Frc consts  --      0.0506                 0.0717                 0.0359
 IR Inten    --      5.2048                 2.7180                 0.6242
 Raman Activ --      2.2377                 1.6542                 0.2242

                     13                     14                     15
                      A                      A                      A
 Frequencies --    232.0099               254.9983               263.4087
 Red. masses --      3.9149                 1.8575                 1.3621
 Frc consts  --      0.1242                 0.0712                 0.0557
 IR Inten    --      4.0142                 2.7093                 0.3225
 Raman Activ --      0.2884                 0.6458                 0.3398

                     16                     17                     18
                      A                      A                      A
 Frequencies --    270.6028               292.1703               312.1562
 Red. masses --      1.0925                 2.0065                 1.1273
 Frc consts  --      0.0471                 0.1009                 0.0647
 IR Inten    --      0.0745                64.1737                86.1670
 Raman Activ --      0.0354                 1.3428                 2.5812

                     19                     20                     21
                      A                      A                      A
 Frequencies --    328.3671               341.4790               344.0361
 Red. masses --      1.8293                 3.2913                 2.4774
 Frc consts  --      0.1162                 0.2261                 0.1728
 IR Inten    --     69.4475                10.3334                 1.1382
 Raman Activ --      2.3194                 0.9094                 0.8153

                     22                     23                     24
                      A                      A                      A
 Frequencies --    350.3894               408.1669               443.5168
 Red. masses --      2.7913                 3.8136                 2.4835
 Frc consts  --      0.2019                 0.3743                 0.2878
 IR Inten    --      1.4551                 0.7907                 7.0742
 Raman Activ --      0.5688                 0.9506                 0.7107

                     25                     26                     27
                      A                      A                      A
 Frequencies --    447.8110               456.0329               483.7226
 Red. masses --      2.9509                 2.5891                 3.1975
 Frc consts  --      0.3487                 0.3172                 0.4408
 IR Inten    --      5.3205                 2.1169                 1.9753
 Raman Activ --      0.0344                 0.5224                 1.2682

                     28                     29                     30
                      A                      A                      A
 Frequencies --    519.1934               536.4756               562.1467
 Red. masses --      3.5158                 4.3945                 3.6378
 Frc consts  --      0.5584                 0.7452                 0.6773
 IR Inten    --      5.7110                 7.8960                14.2218
 Raman Activ --      7.4115                 0.8104                 2.6103

                     31                     32                     33
                      A                      A                      A
 Frequencies --    609.7224               626.0325               730.5054
 Red. masses --      3.0184                 6.2164                 3.5456
 Frc consts  --      0.6611                 1.4354                 1.1148
 IR Inten    --     20.9507                23.8597                17.5164
 Raman Activ --      0.3351                 1.7679                 5.2565

                     34                     35                     36
                      A                      A                      A
 Frequencies --    739.7390               777.6512               792.1207
 Red. masses --      4.0627                 1.4066                 3.9755
 Frc consts  --      1.3099                 0.5012                 1.4697
 IR Inten    --      1.4118                46.7026                14.2726
 Raman Activ --      2.0396                 4.1563                20.3167

                     37                     38                     39
                      A                      A                      A
 Frequencies --    809.0467               824.5145               884.3602
 Red. masses --      4.6138                 1.4796                 3.0102
 Frc consts  --      1.7793                 0.5927                 1.3871
 IR Inten    --     12.2724                36.6159                12.7114
 Raman Activ --      8.3994                 0.4493                 8.5286

                     40                     41                     42
                      A                      A                      A
 Frequencies --    906.1419               920.8684               926.9217
 Red. masses --      1.7983                 1.9217                 1.3772
 Frc consts  --      0.8699                 0.9602                 0.6971
 IR Inten    --      1.1755                 1.5970                19.1145
 Raman Activ --      8.6636                 6.3130                 0.6301

                     43                     44                     45
                      A                      A                      A
 Frequencies --    954.1944               954.2540               958.1322
 Red. masses --      2.2617                 1.9503                 1.2294
 Frc consts  --      1.2133                 1.0463                 0.6649
 IR Inten    --     11.5080                 6.4469                 0.3784
 Raman Activ --      8.5581                 3.5279                 0.2815

                     46                     47                     48
                      A                      A                      A
 Frequencies --    959.1237              1030.8973              1033.4912
 Red. masses --      1.3809                 1.7883                 1.7365
 Frc consts  --      0.7485                 1.1198                 1.0928
 IR Inten    --      1.9659                 9.6896                10.3221
 Raman Activ --      0.1573                 1.5996                 1.3739

                     49                     50                     51
                      A                      A                      A
 Frequencies --   1036.5043              1051.5140              1053.3515
 Red. masses --      1.5914                 2.4478                 2.7241
 Frc consts  --      1.0073                 1.5946                 1.7808
 IR Inten    --     16.5244                31.7751                60.5339
 Raman Activ --      1.5082                 4.2158                 3.4895

                     52                     53                     54
                      A                      A                      A
 Frequencies --   1081.1813              1121.5700              1130.0500
 Red. masses --      2.7696                 2.3910                 3.2269
 Frc consts  --      1.9075                 1.7720                 2.4279
 IR Inten    --     49.7233                97.2304                 9.3838
 Raman Activ --      4.6422                 6.3369                 0.2589

                     55                     56                     57
                      A                      A                      A
 Frequencies --   1166.9784              1189.6934              1202.6504
 Red. masses --      1.3947                 1.2559                 1.2497
 Frc consts  --      1.1191                 1.0473                 1.0649
 IR Inten    --     41.5053                65.1062                39.9113
 Raman Activ --      1.7039                 2.3033                 4.3413

                     58                     59                     60
                      A                      A                      A
 Frequencies --   1208.1136              1229.1806              1242.7340
 Red. masses --      1.2611                 2.3483                 2.3572
 Frc consts  --      1.0845                 2.0905                 2.1449
 IR Inten    --     31.2758                38.2173                 5.5742
 Raman Activ --      8.8180                 8.5031                14.7975

                     61                     62                     63
                      A                      A                      A
 Frequencies --   1248.2887              1260.1021              1266.4503
 Red. masses --      2.5091                 1.0778                 2.0563
 Frc consts  --      2.3036                 1.0083                 1.9432
 IR Inten    --     32.0713                 0.4150                54.8561
 Raman Activ --      4.7152                 5.5752                 6.4951

                     64                     65                     66
                      A                      A                      A
 Frequencies --   1280.3649              1305.8002              1315.4549
 Red. masses --      3.2486                 1.7540                 1.4166
 Frc consts  --      3.1377                 1.7621                 1.4443
 IR Inten    --     84.6494                 3.0138                79.5552
 Raman Activ --     28.7839                 8.5722                12.3220

                     67                     68                     69
                      A                      A                      A
 Frequencies --   1332.7461              1357.8126              1379.7305
 Red. masses --      1.3313                 2.2004                 1.6334
 Frc consts  --      1.3933                 2.3902                 1.8321
 IR Inten    --     45.1919                29.1681                 7.3313
 Raman Activ --      0.5772                 2.5548                 2.5875

                     70                     71                     72
                      A                      A                      A
 Frequencies --   1393.4819              1396.4329              1411.4704
 Red. masses --      1.2482                 1.2641                 1.4281
 Frc consts  --      1.4280                 1.4524                 1.6763
 IR Inten    --     16.3849                11.2906                14.6294
 Raman Activ --      1.9411                 2.2864                24.9416

                     73                     74                     75
                      A                      A                      A
 Frequencies --   1424.1476              1447.1007              1463.7917
 Red. masses --      1.2426                 1.4992                 3.2269
 Frc consts  --      1.4849                 1.8497                 4.0737
 IR Inten    --      8.7830                14.1045                29.3255
 Raman Activ --      1.6845                 7.1481                 3.3469

                     76                     77                     78
                      A                      A                      A
 Frequencies --   1476.6764              1484.9173              1489.3028
 Red. masses --      1.0571                 1.0528                 1.0512
 Frc consts  --      1.3582                 1.3677                 1.3737
 IR Inten    --      3.5358                 2.7418                 4.3926
 Raman Activ --      0.2107                11.4120                12.7873

                     79                     80                     81
                      A                      A                      A
 Frequencies --   1489.9311              1499.5939              1503.5085
 Red. masses --      1.0929                 1.0775                 1.0598
 Frc consts  --      1.4295                 1.4276                 1.4115
 IR Inten    --     10.7826                 6.6887                 8.4560
 Raman Activ --      1.2864                 8.6721                 2.3702

                     82                     83                     84
                      A                      A                      A
 Frequencies --   1504.4289              1520.0140              1523.7986
 Red. masses --      1.0887                 1.0603                 1.1788
 Frc consts  --      1.4518                 1.4434                 1.6127
 IR Inten    --      5.2413                12.8993                32.2372
 Raman Activ --     10.8194                 0.5444                 1.5685

                     85                     86                     87
                      A                      A                      A
 Frequencies --   1533.3577              1638.5150              1651.5738
 Red. masses --      2.7823                 6.2907                 6.2530
 Frc consts  --      3.8542                 9.9507                10.0492
 IR Inten    --     62.5402                11.7286                21.4848
 Raman Activ --      2.1089                28.3680                32.6959

                     88                     89                     90
                      A                      A                      A
 Frequencies --   2944.1909              2986.5942              3008.8938
 Red. masses --      1.0715                 1.0559                 1.1058
 Frc consts  --      5.4725                 5.5492                 5.8985
 IR Inten    --     42.2825                40.7622                30.2792
 Raman Activ --     71.1479               220.5031               100.6540

                     91                     92                     93
                      A                      A                      A
 Frequencies --   3015.5400              3016.5725              3020.2465
 Red. masses --      1.0674                 1.0516                 1.0355
 Frc consts  --      5.7189                 5.6382                 5.5655
 IR Inten    --      4.0242                50.2959                38.4841
 Raman Activ --     45.7719                15.0676               111.9404

                     94                     95                     96
                      A                      A                      A
 Frequencies --   3030.1126              3071.5974              3075.9379
 Red. masses --      1.0360                 1.0890                 1.1011
 Frc consts  --      5.6042                 6.0535                 6.1382
 IR Inten    --     10.9478                13.3464                 1.4781
 Raman Activ --    328.4986                40.6336                15.2892

                     97                     98                     99
                      A                      A                      A
 Frequencies --   3082.4446              3087.9468              3092.2417
 Red. masses --      1.0997                 1.1008                 1.1003
 Frc consts  --      6.1560                 6.1843                 6.1988
 IR Inten    --     54.5060                14.4281                72.6828
 Raman Activ --     96.8794                46.9344                79.4371

                    100                    101                    102
                      A                      A                      A
 Frequencies --   3097.7498              3102.7272              3146.7932
 Red. masses --      1.1023                 1.1018                 1.0892
 Frc consts  --      6.2320                 6.2495                 6.3547
 IR Inten    --     16.2152                51.6431                19.8815
 Raman Activ --     28.2940               122.5970               114.0517

                    103                    104                    105
                      A                      A                      A
 Frequencies --   3187.4996              3190.2161              3516.6013
 Red. masses --      1.0921                 1.0898                 1.0735
 Frc consts  --      6.5373                 6.5346                 7.8220
 IR Inten    --      3.5375                 1.1708                 4.9588
 Raman Activ --     87.8370                53.1837                57.4905

                    106                    107                    108
                      A                      A                      A
 Frequencies --   3833.2081              3837.7911              3858.8952
 Red. masses --      1.0666                 1.0662                 1.0669
 Frc consts  --      9.2337                 9.2527                 9.3608
 IR Inten    --     30.8762                72.4498                50.5140
 Raman Activ --    102.0722               137.4316               170.2720

 - Thermochemistry -
 -------------------
 Temperature   298.150 Kelvin.  Pressure   1.00000 Atm.
 Atom     1 has atomic number  6 and mass  12.00000

 Molecular mass:   239.15214 amu.
 Principal axes and moments of inertia in atomic units:
                           1         2         3
     Eigenvalues --  2083.844139713.36841**********
           X            0.99606  -0.08473  -0.02633
           Y            0.02747   0.01238   0.99955
           Z            0.08436   0.99633  -0.01466
 This molecule is an asymmetric top.
 Rotational symmetry number  1.
 Warning -- assumption of classical behavior for rotation
           may cause significant error
 Rotational temperatures (Kelvin)      0.04156     0.00892     0.00828
 Rotational constants (GHZ):           0.86606     0.18580     0.17263
 Zero-point vibrational energy     856486.3 (Joules/Mol)
                                  204.70514 (Kcal/Mol)
 Warning -- explicit consideration of  31 degrees of freedom as
           vibrations may cause significant error
 Vibrational temperatures:     24.56    38.86    63.37    79.67   100.72
          (Kelvin)            166.75   190.66   225.16   235.00   265.35
                              298.64   315.21   333.81   366.89   378.99
                              389.34   420.37   449.12   472.45   491.31
                              494.99   504.13   587.26   638.12   644.30
                              656.13   695.97   747.00   771.87   808.80
                              877.25   900.72  1051.03  1064.32  1118.87
                             1139.68  1164.04  1186.29  1272.40  1303.73
                             1324.92  1333.63  1372.87  1372.96  1378.54
                             1379.96  1483.23  1486.96  1491.30  1512.89
                             1515.54  1555.58  1613.69  1625.89  1679.02
                             1711.70  1730.34  1738.20  1768.51  1788.01
                             1796.01  1813.00  1822.14  1842.16  1878.75
                             1892.64  1917.52  1953.59  1985.12  2004.91
                             2009.15  2030.79  2049.03  2082.05  2106.07
                             2124.61  2136.46  2142.77  2143.68  2157.58
                             2163.21  2164.53  2186.96  2192.40  2206.16
                             2357.45  2376.24  4236.03  4297.04  4329.12
                             4338.68  4340.17  4345.46  4359.65  4419.34
                             4425.58  4434.94  4442.86  4449.04  4456.97
                             4464.13  4527.53  4586.10  4590.00  5059.60
                             5515.12  5521.72  5552.08

 Zero-point correction=                           0.326218 (Hartree/Particle)
 Thermal correction to Energy=                    0.345482
 Thermal correction to Enthalpy=                  0.346426
 Thermal correction to Gibbs Free Energy=         0.277535
 Sum of electronic and zero-point Energies=           -788.348200
 Sum of electronic and thermal Energies=              -788.328936
 Sum of electronic and thermal Enthalpies=            -788.327992
 Sum of electronic and thermal Free Energies=         -788.396883

                     E (Thermal)             CV                S
                      KCal/Mol        Cal/Mol-Kelvin    Cal/Mol-Kelvin
 Total                  216.793             72.255            144.995
 Electronic               0.000              0.000              0.000
 Translational            0.889              2.981             42.317
 Rotational               0.889              2.981             33.714
 Vibrational            215.016             66.293             68.964
 Vibration     1          0.593              1.986              6.949
 Vibration     2          0.593              1.984              6.038
 Vibration     3          0.595              1.980              5.068
 Vibration     4          0.596              1.975              4.616
 Vibration     5          0.598              1.968              4.153
 Vibration     6          0.608              1.936              3.168
 Vibration     7          0.613              1.921              2.909
 Vibration     8          0.620              1.895              2.592
 Vibration     9          0.623              1.887              2.511
 Vibration    10          0.631              1.861              2.283
 Vibration    11          0.641              1.829              2.065
 Vibration    12          0.647              1.812              1.967
 Vibration    13          0.653              1.792              1.863
 Vibration    14          0.665              1.754              1.696
 Vibration    15          0.670              1.740              1.639
 Vibration    16          0.674              1.727              1.592
 Vibration    17          0.688              1.688              1.461
 Vibration    18          0.701              1.651              1.351
 Vibration    19          0.712              1.619              1.268
 Vibration    20          0.721              1.593              1.205
 Vibration    21          0.723              1.587              1.193
 Vibration    22          0.727              1.574              1.164
 Vibration    23          0.773              1.452              0.933
 Vibration    24          0.803              1.375              0.816
 Vibration    25          0.807              1.366              0.802
 Vibration    26          0.814              1.348              0.778
 Vibration    27          0.840              1.286              0.700
 Vibration    28          0.874              1.207              0.612
 Vibration    29          0.891              1.169              0.573
 Vibration    30          0.918              1.113              0.520
 Vibration    31          0.969              1.011              0.433

 Normal termination of Gaussian 09 at Fri Aug 19 10:01:32 2022.
