 Gaussian 09, Revision D.01,
 Gaussian 09:  ES64L-G09RevD.01 24-Apr-2013

 ----------------------------------------------------------------------
 #p opt=verytight freq=(raman,savenormalmodes) b3lyp/6-311+g(d,p) nosym
 m guess=save scf=(xqc,tight)
 ----------------------------------------------------------------------

 ----------------
 Albuterol Cation
 ----------------
 Symbolic Z-matrix:
 Charge =  1 Multiplicity = 1

 SCF Done:  E(RB3LYP) =  -789.055222776     A.U. after   14 cycles
 SCF Done:  E(RB3LYP) =  -789.068233785     A.U. after   12 cycles
 SCF Done:  E(RB3LYP) =  -789.070061094     A.U. after   12 cycles
 SCF Done:  E(RB3LYP) =  -789.070602703     A.U. after   13 cycles
 SCF Done:  E(RB3LYP) =  -789.070833373     A.U. after   13 cycles
 SCF Done:  E(RB3LYP) =  -789.070933925     A.U. after   13 cycles
 SCF Done:  E(RB3LYP) =  -789.070984041     A.U. after   11 cycles
 SCF Done:  E(RB3LYP) =  -789.070998974     A.U. after   11 cycles
 SCF Done:  E(RB3LYP) =  -789.071002099     A.U. after    9 cycles
 SCF Done:  E(RB3LYP) =  -789.071003172     A.U. after    9 cycles
 SCF Done:  E(RB3LYP) =  -789.071003525     A.U. after    8 cycles
 SCF Done:  E(RB3LYP) =  -789.071003526     A.U. after    6 cycles
 SCF Done:  E(RB3LYP) =  -789.071003526     A.U. after    6 cycles
 SCF Done:  E(RB3LYP) =  -789.071003526     A.U. after    5 cycles
 SCF Done:  E(RB3LYP) =  -789.071003526     A.U. after    5 cycles
 SCF Done:  E(RB3LYP) =  -789.071003526     A.U. after    5 cycles
 SCF Done:  E(RB3LYP) =  -789.071003526     A.U. after    4 cycles
 SCF Done:  E(RB3LYP) =  -789.071003526     A.U. after    3 cycles
 SCF Done:  E(RB3LYP) =  -789.071003526     A.U. after    4 cycles
 Optimization completed.
    -- Stationary point found.
 Normal termination of Gaussian 09 at Mon Aug 22 01:23:24 2022.

 ----------------------------------------------------------------------
 #P Geom=AllCheck Guess=TCheck SCRF=Check GenChk RB3LYP/6-311+G(d,p) Fr
 eq
 ----------------------------------------------------------------------

 Structure from the checkpoint file:  "albuterolcation.chk"
 ----------------
 Albuterol Cation
 ----------------
 Charge =  1 Multiplicity = 1

                          Input orientation:
 ---------------------------------------------------------------------
 Center     Atomic      Atomic             Coordinates (Angstroms)
 Number     Number       Type             X           Y           Z
 ---------------------------------------------------------------------
      1          6           0        2.475477   -0.473228   -0.576625
      2          1           0        3.440895   -0.981957   -0.589020
      3          1           0        2.488660    0.275464   -1.373656
      4          1           0        1.714078   -1.220501   -0.805945
      5          6           0        2.276005    0.165260    0.799493
      6          6           0        3.396921    1.163093    1.113169
      7          1           0        3.480525    1.935588    0.343324
      8          1           0        4.351234    0.635970    1.153877
      9          1           0        3.249995    1.647621    2.083326
     10          6           0        2.132157   -0.879028    1.907539
     11          1           0        3.071773   -1.425834    2.002209
     12          1           0        1.350667   -1.609355    1.689696
     13          1           0        1.925271   -0.417181    2.877667
     14          7           0        0.981032    1.015191    0.761625
     15          1           0        1.060570    1.727252    0.022160
     16          6           0       -0.355224    0.350631    0.521819
     17          1           0       -0.626734   -0.233096    1.398778
     18          1           0       -0.244670   -0.304695   -0.339427
     19          6           0       -1.395684    1.437198    0.226938
     20          1           0       -1.558680    2.031711    1.136209
     21          6           0       -2.716882    0.851373   -0.206870
     22          6           0       -3.822726    0.935538    0.647060
     23          1           0       -3.744373    1.432286    1.607018
     24          6           0       -5.055226    0.396968    0.296398
     25          6           0       -5.177733   -0.234127   -0.951516
     26          6           0       -4.086361   -0.317374   -1.818253
     27          1           0       -4.199676   -0.798945   -2.784335
     28          6           0       -2.859027    0.219157   -1.445811
     29          1           0       -2.024741    0.161035   -2.136458
     30          8           0       -6.403595   -0.739729   -1.256791
     31          1           0       -6.404592   -1.140898   -2.133101
     32          6           0       -6.254399    0.485155    1.205899
     33          1           0       -6.637251   -0.525319    1.398004
     34          1           0       -7.052874    1.040003    0.696447
     35          8           0       -5.872162    1.128601    2.415965
     36          1           0       -6.650792    1.237623    2.969663
     37          8           0       -0.752844    2.255495   -0.767163
     38          1           0       -1.384515    2.887312   -1.130178
     39          1           0        0.929855    1.537239    1.640625
 ---------------------------------------------------------------------

 SCF Done:  E(RB3LYP) =  -789.071003526     A.U. after    1 cycles

 Alpha  occ. eigenvalues --  -19.27170 -19.25856 -19.21600 -14.57489 -10.39392
 Alpha  occ. eigenvalues --  -10.37823 -10.37518 -10.34412 -10.31449 -10.31319
 Alpha  occ. eigenvalues --  -10.31202 -10.31099 -10.29347 -10.28952 -10.28466
 Alpha  occ. eigenvalues --  -10.28283 -10.28193  -1.18044  -1.17184  -1.14628
 Alpha  occ. eigenvalues --   -1.11896  -0.97571  -0.96669  -0.91467  -0.87723
 Alpha  occ. eigenvalues --   -0.86060  -0.85034  -0.84257  -0.78317  -0.78210
 Alpha  occ. eigenvalues --   -0.74851  -0.73783  -0.73292  -0.69673  -0.65844
 Alpha  occ. eigenvalues --   -0.65595  -0.64741  -0.64458  -0.62307  -0.60761
 Alpha  occ. eigenvalues --   -0.59164  -0.58849  -0.56917  -0.56188  -0.55447
 Alpha  occ. eigenvalues --   -0.55401  -0.54334  -0.53652  -0.53534  -0.53344
 Alpha  occ. eigenvalues --   -0.52992  -0.52634  -0.52084  -0.50864  -0.49910
 Alpha  occ. eigenvalues --   -0.49676  -0.49013  -0.47978  -0.45553  -0.45124
 Alpha  occ. eigenvalues --   -0.43404  -0.42802  -0.37909  -0.35922  -0.33331
 Alpha virt. eigenvalues --   -0.14429  -0.12522  -0.11911  -0.10805  -0.10396
 Alpha virt. eigenvalues --   -0.09986  -0.08564  -0.08355  -0.07988  -0.07528
 Alpha virt. eigenvalues --   -0.07062  -0.06591  -0.06454  -0.05789  -0.05525

 Mulliken charges:
               1
     1  C   -0.360608
     2  H    0.191685
     3  H    0.176368
     4  H    0.163342
     5  C   -0.261008
     6  C   -0.352736
     7  H    0.168989
     8  H    0.191287
     9  H    0.163266
    10  C   -0.408011
    11  H    0.190291
    12  H    0.170204
    13  H    0.169610
    14  N   -0.088387
    15  H    0.340651
    16  C   -0.614111
    17  H    0.202891
    18  H    0.199945
    19  C   -0.053761
    20  H    0.159020
    21  C    0.658806
    22  C   -0.159300
    23  H    0.141030
    24  C    0.275582
    25  C   -0.919510
    26  C   -0.031790
    27  H    0.124265
    28  C   -0.441208
    29  H    0.138251
    30  O   -0.230149
    31  H    0.263392
    32  C    0.224005
    33  H    0.173431
    34  H    0.175921
    35  O   -0.313280
    36  H    0.265063
    37  O   -0.292102
    38  H    0.293258
    39  H    0.305407
 Sum of Mulliken charges =   1.00000

 Dipole moment (field-independent basis, Debye):
    X=             -0.7834    Y=              2.3425    Z=              1.8027  Tot=              3.0579
 Quadrupole moment (field-independent basis, Debye-Ang):
   XX=            -40.7398   YY=            -92.8734   ZZ=            -85.0920
   XY=              1.9285   XZ=              9.6928   YZ=              6.2709

  Exact polarizability: 224.290  13.684 135.356   2.176  14.294 161.237
 Approx polarizability: 288.532  24.130 208.612  -3.434  27.293 250.563

                      1                      2                      3
                      A                      A                      A
 Frequencies --     16.5124                29.8983                46.3909
 Red. masses --      4.0390                 3.2981                 4.3222
 Frc consts  --      0.0006                 0.0017                 0.0055
 IR Inten    --      0.3324                 0.3328                 0.0801
 Raman Activ --      1.4538                 0.4004                 1.5945

                      4                      5                      6
                      A                      A                      A
 Frequencies --     66.6229                82.2290               105.6357
 Red. masses --      3.5626                 3.3515                 3.0899
 Frc consts  --      0.0093                 0.0134                 0.0203
 IR Inten    --      4.2855                 3.0929                 2.8816
 Raman Activ --      0.4881                 2.5752                 0.6697

                      7                      8                      9
                      A                      A                      A
 Frequencies --    138.8849               172.7691               180.9865
 Red. masses --      4.9925                 2.8126                 2.7926
 Frc consts  --      0.0567                 0.0495                 0.0539
 IR Inten    --      2.1087                 5.4068                14.1857
 Raman Activ --      0.4557                 0.5001                 1.3815

                     10                     11                     12
                      A                      A                      A
 Frequencies --    202.2394               226.3486               233.4242
 Red. masses --      3.3726                 1.1491                 1.1335
 Frc consts  --      0.0813                 0.0347                 0.0364
 IR Inten    --     15.3169                 6.3309               104.4210
 Raman Activ --      2.9323                 0.1375                 2.6671

                     13                     14                     15
                      A                      A                      A
 Frequencies --    237.8468               254.0998               277.0266
 Red. masses --      4.0105                 2.5643                 1.1204
 Frc consts  --      0.1337                 0.0976                 0.0507
 IR Inten    --     11.2639                 0.4714                 2.6976
 Raman Activ --      0.5095                 0.5260                 0.2664

                     16                     17                     18
                      A                      A                      A
 Frequencies --    280.2109               298.1046               330.8230
 Red. masses --      1.1022                 2.4474                 1.5829
 Frc consts  --      0.0510                 0.1281                 0.1021
 IR Inten    --      3.0586                31.1291                80.5191
 Raman Activ --      0.0939                 2.2170                 1.8000

                     19                     20                     21
                      A                      A                      A
 Frequencies --    336.2548               341.8210               357.7457
 Red. masses --      1.8775                 3.2613                 2.6998
 Frc consts  --      0.1251                 0.2245                 0.2036
 IR Inten    --     18.6513                 8.0905                12.6419
 Raman Activ --      0.7301                 0.8065                 0.5196

                     22                     23                     24
                      A                      A                      A
 Frequencies --    358.2737               404.7550               423.4981
 Red. masses --      1.2055                 3.6406                 2.1478
 Frc consts  --      0.0912                 0.3514                 0.2270
 IR Inten    --     95.9395                 0.5683                 0.7883
 Raman Activ --      1.5686                 0.8288                 0.4644

                     25                     26                     27
                      A                      A                      A
 Frequencies --    448.4912               451.3192               482.2829
 Red. masses --      2.8916                 2.8207                 2.8043
 Frc consts  --      0.3427                 0.3385                 0.3843
 IR Inten    --      9.6488                20.1176                 2.7298
 Raman Activ --      0.2616                 0.5530                 6.4480

                     28                     29                     30
                      A                      A                      A
 Frequencies --    518.6556               537.5487               565.0805
 Red. masses --      3.5588                 4.6809                 3.5328
 Frc consts  --      0.5641                 0.7969                 0.6646
 IR Inten    --      9.1049                 5.1080                16.1373
 Raman Activ --      8.3750                 1.0229                 1.7108

                     31                     32                     33
                      A                      A                      A
 Frequencies --    603.1286               620.8005               721.7459
 Red. masses --      3.1411                 5.5453                 4.1263
 Frc consts  --      0.6732                 1.2592                 1.2664
 IR Inten    --     16.9950                15.2221                 1.3167
 Raman Activ --      0.8077                 1.5061                 6.7889

                     34                     35                     36
                      A                      A                      A
 Frequencies --    735.4770               780.9704               809.8588
 Red. masses --      4.0996                 2.9655                 2.8921
 Frc consts  --      1.3066                 1.0657                 1.1176
 IR Inten    --      1.2032                 2.5383                17.3679
 Raman Activ --      0.5729                12.1904                10.6632

                     37                     38                     39
                      A                      A                      A
 Frequencies --    820.9600               825.1511               851.3481
 Red. masses --      1.9221                 1.4995                 2.9970
 Frc consts  --      0.7632                 0.6015                 1.2798
 IR Inten    --      6.5878                29.6952                 8.2903
 Raman Activ --      6.5061                 0.0643                 5.8588

                     40                     41                     42
                      A                      A                      A
 Frequencies --    896.7217               919.3924               934.9142
 Red. masses --      2.8540                 1.3522                 1.6224
 Frc consts  --      1.3521                 0.6735                 0.8355
 IR Inten    --     22.5955                15.8227                 0.6796
 Raman Activ --     11.9703                 0.6307                 5.8914

                     43                     44                     45
                      A                      A                      A
 Frequencies --    939.6289               951.8446               959.4741
 Red. masses --      1.6492                 1.3544                 2.4837
 Frc consts  --      0.8579                 0.7230                 1.3471
 IR Inten    --      0.0073                 1.3989                 1.8007
 Raman Activ --      2.9622                 0.9905                 7.6976

                     46                     47                     48
                      A                      A                      A
 Frequencies --    965.6211               975.9633              1019.8575
 Red. masses --      4.2624                 1.2122                 1.8249
 Frc consts  --      2.3416                 0.6803                 1.1184
 IR Inten    --     55.6547                 0.1032                18.0594
 Raman Activ --     19.2122                 0.0076                 3.6973

                     49                     50                     51
                      A                      A                      A
 Frequencies --   1031.2432              1043.1727              1057.6780
 Red. masses --      1.7451                 2.0739                 5.3380
 Frc consts  --      1.0935                 1.3297                 3.5183
 IR Inten    --      0.3136                57.5551                64.0391
 Raman Activ --      0.2252                 5.8866                 2.5908

                     52                     53                     54
                      A                      A                      A
 Frequencies --   1070.6059              1093.4096              1125.0174
 Red. masses --      1.6984                 1.9244                 2.2626
 Frc consts  --      1.1470                 1.3555                 1.6873
 IR Inten    --     15.7624                 3.6024                87.3962
 Raman Activ --      5.1433                 3.8792                 7.2758

                     55                     56                     57
                      A                      A                      A
 Frequencies --   1163.3031              1175.6304              1189.5150
 Red. masses --      1.2421                 1.3257                 1.2406
 Frc consts  --      0.9903                 1.0795                 1.0343
 IR Inten    --      8.6593                55.2817                53.0693
 Raman Activ --      3.8012                 0.3733                 1.7796

                     58                     59                     60
                      A                      A                      A
 Frequencies --   1204.1961              1214.8563              1245.6574
 Red. masses --      2.0927                 1.2247                 2.3343
 Frc consts  --      1.7880                 1.0649                 2.1340
 IR Inten    --     80.7436                44.5987                52.6637
 Raman Activ --      3.1640                 7.3246                26.4394

                     61                     62                     63
                      A                      A                      A
 Frequencies --   1251.5685              1260.5905              1275.7374
 Red. masses --      2.1226                 1.0697                 1.5180
 Frc consts  --      1.9589                 1.0015                 1.4556
 IR Inten    --     20.9244                 0.5078                58.6209
 Raman Activ --     10.2513                 4.6585                 8.8979

                     64                     65                     66
                      A                      A                      A
 Frequencies --   1298.9632              1311.8054              1316.5871
 Red. masses --      3.1490                 1.7767                 1.8493
 Frc consts  --      3.1305                 1.8013                 1.8886
 IR Inten    --    108.6296                10.3276                34.3712
 Raman Activ --     21.2222                 3.3467                15.6676

                     67                     68                     69
                      A                      A                      A
 Frequencies --   1331.2001              1352.2039              1380.3452
 Red. masses --      1.3771                 1.5765                 2.0963
 Frc consts  --      1.4378                 1.6984                 2.3533
 IR Inten    --      2.4849               109.8965                 3.8177
 Raman Activ --      1.1143                 1.6696                11.1150

                     70                     71                     72
                      A                      A                      A
 Frequencies --   1403.0623              1404.9086              1417.7812
 Red. masses --      1.1983                 1.5448                 1.2689
 Frc consts  --      1.3899                 1.7965                 1.5027
 IR Inten    --     39.1853                52.5103                64.9424
 Raman Activ --     14.8566                 1.6931                 1.3108

                     73                     74                     75
                      A                      A                      A
 Frequencies --   1421.3415              1427.9896              1449.5773
 Red. masses --      1.2598                 1.2479                 1.5019
 Frc consts  --      1.4995                 1.4993                 1.8594
 IR Inten    --     53.4293                58.3023                 9.6355
 Raman Activ --      0.4281                 1.2777                 5.3756

                     76                     77                     78
                      A                      A                      A
 Frequencies --   1454.7527              1471.1266              1479.5172
 Red. masses --      1.2302                 2.8894                 1.0469
 Frc consts  --      1.5340                 3.6843                 1.3503
 IR Inten    --     14.9921                20.1805                 0.9183
 Raman Activ --      0.7998                 6.4619                 3.4344

                     79                     80                     81
                      A                      A                      A
 Frequencies --   1480.7655              1485.6345              1493.2739
 Red. masses --      1.0447                 1.0505                 1.0688
 Frc consts  --      1.3496                 1.3660                 1.4042
 IR Inten    --      0.2788                 2.9576                 6.9521
 Raman Activ --      5.6989                 7.0580                10.9092

                     82                     83                     84
                      A                      A                      A
 Frequencies --   1502.7807              1509.5413              1516.6733
 Red. masses --      1.1030                 1.0615                 1.0706
 Frc consts  --      1.4676                 1.4251                 1.4510
 IR Inten    --      7.1815                 6.0236                 8.9000
 Raman Activ --      9.0393                 5.7392                 4.4130

                     85                     86                     87
                      A                      A                      A
 Frequencies --   1520.3999              1537.0406              1634.7579
 Red. masses --      1.0627                 2.8589                 6.0945
 Frc consts  --      1.4474                 3.9794                 9.5962
 IR Inten    --     27.8711                69.3144                18.3959
 Raman Activ --      3.5844                 2.2133                31.3958

                     88                     89                     90
                      A                      A                      A
 Frequencies --   1646.9688              1652.5185              2994.5588
 Red. masses --      6.0164                 1.0754                 1.0849
 Frc consts  --      9.6152                 1.7302                 5.7322
 IR Inten    --     53.4195                42.0430                23.9811
 Raman Activ --     61.0866                 4.9794                62.5777

                     91                     92                     93
                      A                      A                      A
 Frequencies --   2997.6986              3022.9808              3029.3487
 Red. masses --      1.0558                 1.1063                 1.0381
 Frc consts  --      5.5901                 5.9563                 5.6130
 IR Inten    --     24.2021                18.3926                 5.8704
 Raman Activ --    220.0279                91.0555                65.0169

                     94                     95                     96
                      A                      A                      A
 Frequencies --   3037.0631              3043.7063              3093.5641
 Red. masses --      1.0384                 1.0390                 1.1032
 Frc consts  --      5.6433                 5.6710                 6.2206
 IR Inten    --      7.1792                 2.9095                10.2511
 Raman Activ --     70.0320               260.1057                40.2900

                     97                     98                     99
                      A                      A                      A
 Frequencies --   3105.0440              3108.3270              3112.8299
 Red. masses --      1.0916                 1.0771                 1.0921
 Frc consts  --      6.2008                 6.1313                 6.2349
 IR Inten    --      7.3157                 2.7667                 5.7704
 Raman Activ --     38.2038                48.8453                52.4202

                    100                    101                    102
                      A                      A                      A
 Frequencies --   3119.7588              3120.7245              3126.5609
 Red. masses --      1.1018                 1.0989                 1.0996
 Frc consts  --      6.3185                 6.3054                 6.3334
 IR Inten    --      0.5936                 9.1233                16.4088
 Raman Activ --     13.0651                72.7249               155.3387

                    103                    104                    105
                      A                      A                      A
 Frequencies --   3160.9278              3173.1354              3178.3451
 Red. masses --      1.0881                 1.1108                 1.0945
 Frc consts  --      6.4053                 6.5899                 6.5144
 IR Inten    --      8.9009                 0.4461                 3.7933
 Raman Activ --     70.0483                16.0384               111.8302

                    106                    107                    108
                      A                      A                      A
 Frequencies --   3188.8372              3353.0572              3446.9872
 Red. masses --      1.0901                 1.0626                 1.0837
 Frc consts  --      6.5312                 7.0389                 7.5862
 IR Inten    --      2.0111                80.5214                34.5820
 Raman Activ --     54.6084                55.9523                30.7529

                    109                    110                    111
                      A                      A                      A
 Frequencies --   3822.8571              3827.2377              3855.7374
 Red. masses --      1.0670                 1.0665                 1.0671
 Frc consts  --      9.1874                 9.2041                 9.3467
 IR Inten    --     79.6189               113.6046                77.6511
 Raman Activ --     93.7625               150.8555               169.9736

 - Thermochemistry -
 -------------------
 Temperature   298.150 Kelvin.  Pressure   1.00000 Atm.
 Atom     1 has atomic number  6 and mass  12.00000

 Molecular mass:   240.15997 amu.
 Principal axes and moments of inertia in atomic units:
                           1         2         3
     Eigenvalues --  1923.80372********************
           X            0.99655  -0.08299   0.00190
           Y            0.02201   0.28624   0.95790
           Z            0.08004   0.95456  -0.28708
 This molecule is an asymmetric top.
 Rotational symmetry number  1.
 Warning -- assumption of classical behavior for rotation
           may cause significant error
 Rotational temperatures (Kelvin)      0.04502     0.00856     0.00802
 Rotational constants (GHZ):           0.93811     0.17835     0.16721
 Zero-point vibrational energy     896969.7 (Joules/Mol)
                                  214.38090 (Kcal/Mol)
 Warning -- explicit consideration of  31 degrees of freedom as
           vibrations may cause significant error
 Vibrational temperatures:     23.76    43.02    66.75    95.86   118.31
          (Kelvin)            151.99   199.82   248.58   260.40   290.98
                              325.66   335.85   342.21   365.59   398.58
                              403.16   428.91   475.98   483.80   491.80
                              514.72   515.48   582.35   609.32   645.28
                              649.35   693.90   746.23   773.41   813.02
                              867.77   893.19  1038.43  1058.19  1123.64
                             1165.20  1181.18  1187.21  1224.90  1290.18
                             1322.80  1345.13  1351.91  1369.49  1380.47
                             1389.31  1404.19  1467.35  1483.73  1500.89
                             1521.76  1540.36  1573.17  1618.65  1673.73
                             1691.47  1711.44  1732.57  1747.90  1792.22
                             1800.73  1813.71  1835.50  1868.92  1887.39
                             1894.27  1915.30  1945.52  1986.01  2018.69
                             2021.35  2039.87  2044.99  2054.56  2085.62
                             2093.06  2116.62  2128.69  2130.49  2137.49
                             2148.49  2162.16  2171.89  2182.15  2187.51
                             2211.46  2352.05  2369.62  2377.60  4308.50
                             4313.01  4349.39  4358.55  4369.65  4379.21
                             4450.94  4467.46  4472.18  4478.66  4488.63
                             4490.02  4498.42  4547.86  4565.43  4572.92
                             4588.02  4824.30  4959.44  5500.23  5506.53
                             5547.54

 Zero-point correction=                           0.341638 (Hartree/Particle)
 Thermal correction to Energy=                    0.360677
 Thermal correction to Enthalpy=                  0.361621
 Thermal correction to Gibbs Free Energy=         0.293637
 Sum of electronic and zero-point Energies=           -788.729366
 Sum of electronic and thermal Energies=              -788.710327
 Sum of electronic and thermal Enthalpies=            -788.709383
 Sum of electronic and thermal Free Energies=         -788.777367

                     E (Thermal)             CV                S
                      KCal/Mol        Cal/Mol-Kelvin    Cal/Mol-Kelvin
 Total                  226.328             72.360            143.084
 Electronic               0.000              0.000              0.000
 Translational            0.889              2.981             42.330
 Rotational               0.889              2.981             33.707
 Vibrational            224.551             66.399             67.048
 Vibration     1          0.593              1.986              7.015
 Vibration     2          0.594              1.984              5.836
 Vibration     3          0.595              1.979              4.966
 Vibration     4          0.598              1.970              4.251
 Vibration     5          0.600              1.961              3.837
 Vibration     6          0.605              1.945              3.348
 Vibration     7          0.614              1.914              2.819
 Vibration     8          0.626              1.876              2.405
 Vibration     9          0.630              1.866              2.318
 Vibration    10          0.639              1.837              2.113
 Vibration    11          0.650              1.801              1.908
 Vibration    12          0.654              1.790              1.852
 Vibration    13          0.656              1.783              1.819
 Vibration    14          0.665              1.756              1.702
 Vibration    15          0.678              1.716              1.552
 Vibration    16          0.680              1.710              1.532
 Vibration    17          0.691              1.677              1.428
 Vibration    18          0.713              1.614              1.256
 Vibration    19          0.717              1.603              1.230
 Vibration    20          0.721              1.592              1.204
 Vibration    21          0.733              1.559              1.132
 Vibration    22          0.733              1.558              1.130
 Vibration    23          0.770              1.460              0.945
 Vibration    24          0.786              1.419              0.880
 Vibration    25          0.808              1.364              0.800
 Vibration    26          0.810              1.358              0.792
 Vibration    27          0.839              1.289              0.704
 Vibration    28          0.874              1.209              0.613
 Vibration    29          0.893              1.167              0.571
 Vibration    30          0.921              1.107              0.514
 Vibration    31          0.962              1.025              0.444

 Normal termination of Gaussian 09 at Mon Aug 22 01:53:00 2022.
