 Gaussian 09, Revision D.01,
 Gaussian 09:  ES64L-G09RevD.01 24-Apr-2013

 ----------------------------------------------------------------------
 #p opt=verytight freq=(raman,savenormalmodes) b3lyp/6-311+g(d,p) nosym
 m guess=save scf=(xqc,tight)
 ----------------------------------------------------------------------

 ----------
 Choline Cl
 ----------
 Symbolic Z-matrix:
 Charge =  0 Multiplicity = 1

 SCF Done:  E(RB3LYP) =  -789.236377670     A.U. after   12 cycles
 SCF Done:  E(RB3LYP) =  -789.236987363     A.U. after   10 cycles
 SCF Done:  E(RB3LYP) =  -789.237040899     A.U. after    9 cycles
 SCF Done:  E(RB3LYP) =  -789.237052955     A.U. after    8 cycles
 SCF Done:  E(RB3LYP) =  -789.237056990     A.U. after    8 cycles
 SCF Done:  E(RB3LYP) =  -789.237060867     A.U. after    8 cycles
 SCF Done:  E(RB3LYP) =  -789.237063253     A.U. after    8 cycles
 SCF Done:  E(RB3LYP) =  -789.237065670     A.U. after    8 cycles
 SCF Done:  E(RB3LYP) =  -789.237067000     A.U. after    8 cycles
 SCF Done:  E(RB3LYP) =  -789.237067292     A.U. after    7 cycles
 SCF Done:  E(RB3LYP) =  -789.237067637     A.U. after    6 cycles
 SCF Done:  E(RB3LYP) =  -789.237067639     A.U. after    5 cycles
 SCF Done:  E(RB3LYP) =  -789.237067641     A.U. after    6 cycles
 SCF Done:  E(RB3LYP) =  -789.237067643     A.U. after    6 cycles
 SCF Done:  E(RB3LYP) =  -789.237067644     A.U. after    5 cycles
 SCF Done:  E(RB3LYP) =  -789.237067644     A.U. after    4 cycles
 SCF Done:  E(RB3LYP) =  -789.237067644     A.U. after    3 cycles
 SCF Done:  E(RB3LYP) =  -789.237067644     A.U. after    2 cycles
 SCF Done:  E(RB3LYP) =  -789.237067644     A.U. after    3 cycles
 Optimization completed.
    -- Stationary point found.
 Normal termination of Gaussian 09 at Fri Aug 19 08:45:48 2022.

 ----------------------------------------------------------------------
 #P Geom=AllCheck Guess=TCheck SCRF=Check GenChk RB3LYP/6-311+G(d,p) Fr
 eq
 ----------------------------------------------------------------------

 Structure from the checkpoint file:  "ChoCl.chk"
 ----------
 Choline Cl
 ----------
 Charge =  0 Multiplicity = 1

                          Input orientation:
 ---------------------------------------------------------------------
 Center     Atomic      Atomic             Coordinates (Angstroms)
 Number     Number       Type             X           Y           Z
 ---------------------------------------------------------------------
      1          6           0       -0.046530   -1.899730    0.379726
      2          1           0       -0.896007   -2.361814    0.882636
      3          1           0        0.835791   -1.966628    1.013925
      4          1           0        0.143058   -2.401579   -0.568528
      5          7           0       -0.352110   -0.458859    0.120500
      6          6           0       -0.731994    0.225982    1.415946
      7          1           0       -1.711367   -0.148937    1.713339
      8          1           0       -0.746969    1.307940    1.232480
      9          1           0        0.001574   -0.022852    2.178599
     10          6           0       -1.521683   -0.340360   -0.818481
     11          1           0       -2.370284   -0.880852   -0.399341
     12          1           0       -1.244194   -0.764909   -1.782447
     13          1           0       -1.754139    0.718908   -0.926309
     14          6           0        0.833366    0.227906   -0.571156
     15          1           0        0.434205    1.177811   -0.929467
     16          1           0        1.105099   -0.416426   -1.409670
     17          6           0        2.052525    0.571576    0.303276
     18          1           0        2.763216   -0.257822    0.353792
     19          1           0        1.742872    0.820798    1.323192
     20          8           0        2.722711    1.654952   -0.294070
     21          1           0        2.109507    2.420582   -0.235490
     22         17           0       -0.053135    3.267165    0.067278
 ---------------------------------------------------------------------

 SCF Done:  E(RB3LYP) =  -789.237067644     A.U. after    1 cycles

 Alpha  occ. eigenvalues -- -101.40502 -19.11122 -14.48093 -10.27400 -10.26170
 Alpha  occ. eigenvalues --  -10.24332 -10.23821 -10.23640  -9.31887  -7.07740
 Alpha  occ. eigenvalues --   -7.07699  -7.07680  -1.05500  -1.01901  -0.79916
 Alpha  occ. eigenvalues --   -0.79044  -0.78204  -0.69546  -0.66972  -0.63747
 Alpha  occ. eigenvalues --   -0.56513  -0.56462  -0.55103  -0.51590  -0.49246
 Alpha  occ. eigenvalues --   -0.47721  -0.46293  -0.45066  -0.44822  -0.43952
 Alpha  occ. eigenvalues --   -0.43504  -0.41901  -0.39894  -0.34121  -0.27771
 Alpha  occ. eigenvalues --   -0.21153  -0.20775  -0.20643
 Alpha virt. eigenvalues --   -0.03827  -0.01043  -0.00903  -0.00322   0.00431
 Alpha virt. eigenvalues --    0.01449   0.02562   0.03499   0.03848   0.04636
 Alpha virt. eigenvalues --    0.06323   0.06760   0.07437   0.07895   0.08733

 Mulliken charges:
               1
     1  C   -0.305789
     2  H    0.184479
     3  H    0.194451
     4  H    0.188736
     5  N   -0.384522
     6  C   -0.278892
     7  H    0.170897
     8  H    0.254633
     9  H    0.168647
    10  C   -0.339364
    11  H    0.175317
    12  H    0.184602
    13  H    0.259338
    14  C   -0.159536
    15  H    0.220975
    16  H    0.176331
    17  C   -0.272760
    18  H    0.146021
    19  H    0.157728
    20  O   -0.276671
    21  H    0.258887
    22  Cl  -0.723506
 Sum of Mulliken charges =   0.00000

 Dipole moment (field-independent basis, Debye):
    X=             -3.1678    Y=            -12.9683    Z=              0.8232  Tot=             13.3750
 Quadrupole moment (field-independent basis, Debye-Ang):
   XX=            -64.8471   YY=            -92.1534   ZZ=            -56.9955
   XY=             -1.7864   XZ=              2.1691   YZ=             -0.1613

  Exact polarizability:  94.838   2.938 107.293  -1.066  -1.090  83.006
 Approx polarizability: 126.938   1.296 136.433  -3.025  -1.264 119.739

                      1                      2                      3
                      A                      A                      A
 Frequencies --     33.0439                85.7435               115.0512
 Red. masses --      4.0674                 2.3976                 5.4922
 Frc consts  --      0.0026                 0.0104                 0.0428
 IR Inten    --      8.5661                 2.1506                10.0073
 Raman Activ --      0.1649                 0.2059                 0.4425

                      4                      5                      6
                      A                      A                      A
 Frequencies --    124.2167               181.5828               224.5375
 Red. masses --      4.1540                 5.7956                 1.5654
 Frc consts  --      0.0378                 0.1126                 0.0465
 IR Inten    --     13.4366                30.3214                 2.8065
 Raman Activ --      0.3132                 0.7659                 0.0804

                      7                      8                      9
                      A                      A                      A
 Frequencies --    265.8190               300.6308               324.6719
 Red. masses --      1.3484                 1.0531                 1.5590
 Frc consts  --      0.0561                 0.0561                 0.0968
 IR Inten    --      0.9719                 0.5218                 2.1240
 Raman Activ --      0.2537                 0.3407                 1.5925

                     10                     11                     12
                      A                      A                      A
 Frequencies --    335.7290               370.2674               379.6261
 Red. masses --      1.6868                 2.4958                 2.4754
 Frc consts  --      0.1120                 0.2016                 0.2102
 IR Inten    --      1.5745                 7.1167                 0.2124
 Raman Activ --      1.0820                 0.9301                 1.1620

                     13                     14                     15
                      A                      A                      A
 Frequencies --    446.6773               464.4263               523.8208
 Red. masses --      2.2487                 2.8105                 2.6372
 Frc consts  --      0.2643                 0.3572                 0.4263
 IR Inten    --      4.3575                 0.3664                 0.4994
 Raman Activ --      1.0496                 1.6510                 4.2437

                     16                     17                     18
                      A                      A                      A
 Frequencies --    714.5921               745.6995               808.4440
 Red. masses --      1.0754                 2.7561                 1.4551
 Frc consts  --      0.3236                 0.9030                 0.5603
 IR Inten    --     81.2703                10.1407                 9.6934
 Raman Activ --      2.8276                10.9167                 2.9145

                     19                     20                     21
                      A                      A                      A
 Frequencies --    881.4538               946.7898               981.2933
 Red. masses --      3.3338                 2.9250                 2.4969
 Frc consts  --      1.5261                 1.5448                 1.4166
 IR Inten    --     39.9974                19.7026                25.4022
 Raman Activ --      5.0228                 4.5775                 4.8291

                     22                     23                     24
                      A                      A                      A
 Frequencies --   1033.6137              1071.2367              1084.8114
 Red. masses --      2.9458                 1.4838                 1.2065
 Frc consts  --      1.8542                 1.0032                 0.8365
 IR Inten    --      1.8385                29.9528                 1.0819
 Raman Activ --      5.9478                 0.3817                 0.0745

                     25                     26                     27
                      A                      A                      A
 Frequencies --   1090.6486              1142.6420              1156.6525
 Red. masses --      4.5361                 1.3052                 1.3977
 Frc consts  --      3.1791                 1.0040                 1.1017
 IR Inten    --     59.4703                 9.9866                 1.0815
 Raman Activ --      5.0022                 1.0203                 2.7929

                     28                     29                     30
                      A                      A                      A
 Frequencies --   1222.0652              1264.8682              1290.1533
 Red. masses --      1.2565                 1.8494                 1.5853
 Frc consts  --      1.1056                 1.7433                 1.5546
 IR Inten    --      9.3541                 1.4744                 6.8391
 Raman Activ --      3.2877                 0.3397                 2.9469

                     31                     32                     33
                      A                      A                      A
 Frequencies --   1296.6154              1357.0706              1390.8510
 Red. masses --      1.6535                 1.3193                 1.1738
 Frc consts  --      1.6379                 1.4315                 1.3378
 IR Inten    --      0.1632                 2.5883                 1.7864
 Raman Activ --      0.6121                 2.2322                 4.3220

                     34                     35                     36
                      A                      A                      A
 Frequencies --   1438.4289              1443.8940              1448.6158
 Red. masses --      1.1448                 1.1088                 1.1504
 Frc consts  --      1.3956                 1.3620                 1.4224
 IR Inten    --     12.6096                15.3210                10.7050
 Raman Activ --      2.9021                 2.3758                 3.7553

                     37                     38                     39
                      A                      A                      A
 Frequencies --   1456.6418              1470.5184              1478.2403
 Red. masses --      1.1529                 1.1576                 1.0631
 Frc consts  --      1.4412                 1.4749                 1.3687
 IR Inten    --     12.3056                39.5807                 1.0012
 Raman Activ --      3.0249                 4.9937                 1.7014

                     40                     41                     42
                      A                      A                      A
 Frequencies --   1493.1124              1496.2824              1499.7121
 Red. masses --      1.0550                 1.0529                 1.1364
 Frc consts  --      1.3857                 1.3889                 1.5059
 IR Inten    --      1.8897                 0.6830                14.0823
 Raman Activ --      8.9348                 4.2036                 9.5261

                     43                     44                     45
                      A                      A                      A
 Frequencies --   1504.4267              1511.8373              1515.2849
 Red. masses --      1.0673                 1.0569                 1.0946
 Frc consts  --      1.4232                 1.4233                 1.4809
 IR Inten    --     10.3111                25.3081                18.8536
 Raman Activ --      9.6555                 1.3706                 7.9081

                     46                     47                     48
                      A                      A                      A
 Frequencies --   1531.3459              2964.2462              3028.6961
 Red. masses --      1.0559                 1.0570                 1.0578
 Frc consts  --      1.4589                 5.4723                 5.7172
 IR Inten    --     32.8596               171.1279                77.2554
 Raman Activ --      1.0146               149.3645               137.5885

                     49                     50                     51
                      A                      A                      A
 Frequencies --   3038.8764              3054.7296              3062.2953
 Red. masses --      1.0588                 1.0311                 1.0331
 Frc consts  --      5.7609                 5.6689                 5.7081
 IR Inten    --     55.6333                20.2177                20.9870
 Raman Activ --     54.7249                81.2091               213.5257

                     52                     53                     54
                      A                      A                      A
 Frequencies --   3068.4940              3109.7094              3113.2286
 Red. masses --      1.1050                 1.0952                 1.1006
 Frc consts  --      6.1300                 6.2400                 6.2847
 IR Inten    --     48.9188                 6.4085                13.1593
 Raman Activ --     81.2342                21.2655                82.5192

                     55                     56                     57
                      A                      A                      A
 Frequencies --   3145.2121              3149.2368              3153.0950
 Red. masses --      1.1073                 1.1076                 1.1075
 Frc consts  --      6.4538                 6.4719                 6.4873
 IR Inten    --      0.5809                 9.6665                 4.8681
 Raman Activ --     12.2686                74.4424                35.1711

                     58                     59                     60
                      A                      A                      A
 Frequencies --   3155.6676              3162.5436              3475.8659
 Red. masses --      1.1071                 1.1037                 1.0676
 Frc consts  --      6.4953                 6.5041                 7.5998
 IR Inten    --      2.6148                14.0124               430.8001
 Raman Activ --     35.1418                57.9580                92.2887

 - Thermochemistry -
 -------------------
 Temperature   298.150 Kelvin.  Pressure   1.00000 Atm.
 Atom     1 has atomic number  6 and mass  12.00000

 Molecular mass:   139.07639 amu.
 Principal axes and moments of inertia in atomic units:
                           1         2         3
     Eigenvalues --   971.563531706.834022253.92670
           X            0.30671   0.95015   0.05602
           Y            0.95103  -0.30830   0.02230
           Z           -0.03846  -0.04644   0.99818
 This molecule is an asymmetric top.
 Rotational symmetry number  1.
 Warning -- assumption of classical behavior for rotation
           may cause significant error
 Rotational temperatures (Kelvin)      0.08915     0.05075     0.03843
 Rotational constants (GHZ):           1.85756     1.05736     0.80071
 Zero-point vibrational energy     518136.0 (Joules/Mol)
                                  123.83749 (Kcal/Mol)
 Warning -- explicit consideration of  15 degrees of freedom as
           vibrations may cause significant error
 Vibrational temperatures:     47.54   123.37   165.53   178.72   261.26
          (Kelvin)            323.06   382.45   432.54   467.13   483.04
                              532.73   546.20   642.67   668.21   753.66
                             1028.14  1072.89  1163.17  1268.21  1362.22
                             1411.86  1487.14  1541.27  1560.80  1569.20
                             1644.00  1664.16  1758.28  1819.86  1856.24
                             1865.54  1952.52  2001.12  2069.58  2077.44
                             2084.23  2095.78  2115.75  2126.86  2148.25
                             2152.81  2157.75  2164.53  2175.19  2180.15
                             2203.26  4264.88  4357.61  4372.26  4395.07
                             4405.95  4414.87  4474.17  4479.24  4525.25
                             4531.04  4536.59  4540.30  4550.19  5000.99

 Zero-point correction=                           0.197348 (Hartree/Particle)
 Thermal correction to Energy=                    0.208080
 Thermal correction to Enthalpy=                  0.209024
 Thermal correction to Gibbs Free Energy=         0.160603
 Sum of electronic and zero-point Energies=           -789.039720
 Sum of electronic and thermal Energies=              -789.028988
 Sum of electronic and thermal Enthalpies=            -789.028043
 Sum of electronic and thermal Free Energies=         -789.076465

                     E (Thermal)             CV                S
                      KCal/Mol        Cal/Mol-Kelvin    Cal/Mol-Kelvin
 Total                  130.572             38.202            101.911
 Electronic               0.000              0.000              0.000
 Translational            0.889              2.981             40.701
 Rotational               0.889              2.981             29.704
 Vibrational            128.795             32.240             31.507
 Vibration     1          0.594              1.983              5.638
 Vibration     2          0.601              1.959              3.755
 Vibration     3          0.608              1.937              3.182
 Vibration     4          0.610              1.929              3.034
 Vibration     5          0.630              1.865              2.312
 Vibration     6          0.649              1.804              1.922
 Vibration     7          0.672              1.736              1.623
 Vibration     8          0.693              1.672              1.413
 Vibration     9          0.709              1.626              1.286
 Vibration    10          0.717              1.604              1.232
 Vibration    11          0.742              1.533              1.079
 Vibration    12          0.750              1.514              1.041
 Vibration    13          0.806              1.368              0.806
 Vibration    14          0.822              1.329              0.753
 Vibration    15          0.879              1.197              0.601

 Normal termination of Gaussian 09 at Fri Aug 19 08:49:51 2022.
