 Gaussian 09, Revision D.01,
 Gaussian 09:  ES64L-G09RevD.01 24-Apr-2013

 ----------------------------------------------------------------------
 #p opt=verytight freq=(raman,savenormalmodes) b3lyp/6-311+g(d,p) nosym
 m guess=save scf=(xqc,tight)
 ----------------------------------------------------------------------

 --------------
 Choline Cation
 --------------
 Symbolic Z-matrix:
 Charge =  1 Multiplicity = 1

 SCF Done:  E(RB3LYP) =  -328.781411909     A.U. after   11 cycles
 SCF Done:  E(RB3LYP) =  -328.781958558     A.U. after    9 cycles
 SCF Done:  E(RB3LYP) =  -328.782013236     A.U. after    9 cycles
 SCF Done:  E(RB3LYP) =  -328.782019295     A.U. after    8 cycles
 SCF Done:  E(RB3LYP) =  -328.782019893     A.U. after    7 cycles
 SCF Done:  E(RB3LYP) =  -328.782020103     A.U. after    7 cycles
 SCF Done:  E(RB3LYP) =  -328.782020200     A.U. after    7 cycles
 SCF Done:  E(RB3LYP) =  -328.782020261     A.U. after    7 cycles
 SCF Done:  E(RB3LYP) =  -328.782020291     A.U. after    6 cycles
 SCF Done:  E(RB3LYP) =  -328.782020311     A.U. after    6 cycles
 SCF Done:  E(RB3LYP) =  -328.782020348     A.U. after    6 cycles
 SCF Done:  E(RB3LYP) =  -328.782020414     A.U. after    7 cycles
 SCF Done:  E(RB3LYP) =  -328.782020421     A.U. after    6 cycles
 SCF Done:  E(RB3LYP) =  -328.782020422     A.U. after    4 cycles
 SCF Done:  E(RB3LYP) =  -328.782020422     A.U. after    3 cycles
 SCF Done:  E(RB3LYP) =  -328.782020422     A.U. after    3 cycles
 SCF Done:  E(RB3LYP) =  -328.782020422     A.U. after    2 cycles
 SCF Done:  E(RB3LYP) =  -328.782020422     A.U. after    3 cycles
 SCF Done:  E(RB3LYP) =  -328.782020422     A.U. after    2 cycles
 Optimization completed.
    -- Stationary point found.
 Normal termination of Gaussian 09 at Fri Aug 19 02:52:53 2022.

 ----------------------------------------------------------------------
 #P Geom=AllCheck Guess=TCheck SCRF=Check GenChk RB3LYP/6-311+G(d,p) Fr
 eq
 ----------------------------------------------------------------------

 Structure from the checkpoint file:  "cholinecation.chk"
 --------------
 Choline Cation
 --------------
 Charge =  1 Multiplicity = 1

                          Input orientation:
 ---------------------------------------------------------------------
 Center     Atomic      Atomic             Coordinates (Angstroms)
 Number     Number       Type             X           Y           Z
 ---------------------------------------------------------------------
      1          6           0        0.016692   -1.813236    0.232225
      2          1           0       -0.818789   -2.409905    0.594788
      3          1           0        0.851461   -1.895015    0.923664
      4          1           0        0.315393   -2.153588   -0.757908
      5          7           0       -0.423564   -0.373709    0.140462
      6          6           0       -0.796387    0.129186    1.512492
      7          1           0       -1.644276   -0.449114    1.875977
      8          1           0       -1.067146    1.181320    1.440163
      9          1           0        0.046492    0.004800    2.187762
     10          6           0       -1.640864   -0.297414   -0.749962
     11          1           0       -2.428395   -0.915173   -0.321604
     12          1           0       -1.376603   -0.663091   -1.740602
     13          1           0       -1.969804    0.738353   -0.810814
     14          6           0        0.660139    0.492551   -0.485994
     15          1           0        0.242540    1.494626   -0.589109
     16          1           0        0.844442    0.094303   -1.484336
     17          6           0        1.988057    0.579434    0.269120
     18          1           0        2.448170   -0.409247    0.384168
     19          1           0        1.852822    1.021638    1.263204
     20          8           0        2.764004    1.415378   -0.566359
     21          1           0        3.634619    1.558325   -0.179733
 ---------------------------------------------------------------------

 SCF Done:  E(RB3LYP) =  -328.782020422     A.U. after    1 cycles

 Alpha  occ. eigenvalues --  -19.27359 -14.62066 -10.39427 -10.39407 -10.39347
 Alpha  occ. eigenvalues --  -10.39301 -10.38793  -1.19427  -1.17852  -0.94288
 Alpha  occ. eigenvalues --   -0.92442  -0.92347  -0.84007  -0.77998  -0.71457
 Alpha  occ. eigenvalues --   -0.70056  -0.68548  -0.65406  -0.64768  -0.61678
 Alpha  occ. eigenvalues --   -0.60175  -0.57988  -0.57869  -0.57861  -0.57471
 Alpha  occ. eigenvalues --   -0.56663  -0.55025  -0.49811  -0.43297
 Alpha virt. eigenvalues --   -0.15071  -0.13402  -0.11481  -0.11308  -0.11145
 Alpha virt. eigenvalues --   -0.10718  -0.10087  -0.09787  -0.07623  -0.07330
 Alpha virt. eigenvalues --   -0.06662  -0.05926  -0.04471  -0.03572  -0.03027

 Mulliken charges:
               1
     1  C   -0.239618
     2  H    0.208910
     3  H    0.196247
     4  H    0.217898
     5  N   -0.444777
     6  C   -0.244457
     7  H    0.208722
     8  H    0.218222
     9  H    0.197411
    10  C   -0.295218
    11  H    0.208841
    12  H    0.213734
    13  H    0.213676
    14  C   -0.263508
    15  H    0.226422
    16  H    0.227416
    17  C   -0.147743
    18  H    0.158651
    19  H    0.159404
    20  O   -0.294749
    21  H    0.274517
 Sum of Mulliken charges =   1.00000

 Dipole moment (field-independent basis, Debye):
    X=             -0.7118    Y=             -2.0527    Z=              2.0539  Tot=              2.9898
 Quadrupole moment (field-independent basis, Debye-Ang):
   XX=            -28.0500   YY=            -37.9246   ZZ=            -38.8222
   XY=              2.0731   XZ=              3.7055   YZ=              1.9513

  Exact polarizability:  73.056   4.786  65.536  -0.686  -1.033  64.089
 Approx polarizability:  92.683   2.427  90.446  -0.911  -1.640  90.446

                      1                      2                      3
                      A                      A                      A
 Frequencies --     31.7495                96.9622               204.6327
 Red. masses --      2.2901                 2.2376                 3.1676
 Frc consts  --      0.0014                 0.0124                 0.0782
 IR Inten    --     17.1579                 1.5114                 1.9009
 Raman Activ --      0.1416                 0.0382                 0.2068

                      4                      5                      6
                      A                      A                      A
 Frequencies --    227.2643               244.3946               277.5373
 Red. masses --      1.0898                 1.0779                 1.0598
 Frc consts  --      0.0332                 0.0379                 0.0481
 IR Inten    --      6.1047               120.7956                 0.1329
 Raman Activ --      0.1401                 1.8097                 0.1409

                      7                      8                      9
                      A                      A                      A
 Frequencies --    295.6255               340.1794               356.4209
 Red. masses --      1.0644                 3.7887                 2.1838
 Frc consts  --      0.0548                 0.2583                 0.1635
 IR Inten    --      0.0445                 8.2014                 0.4868
 Raman Activ --      0.0339                 1.2800                 0.6864

                     10                     11                     12
                      A                      A                      A
 Frequencies --    368.7803               449.4985               458.3125
 Red. masses --      2.5474                 2.2904                 2.7096
 Frc consts  --      0.2041                 0.2727                 0.3353
 IR Inten    --      0.4304                 0.5808                 3.9175
 Raman Activ --      1.2946                 0.4390                 1.0366

                     13                     14                     15
                      A                      A                      A
 Frequencies --    531.5042               760.5999               814.6483
 Red. masses --      2.7574                 3.8699                 1.1704
 Frc consts  --      0.4589                 1.3191                 0.4577
 IR Inten    --      3.1864                 2.0096                 1.5618
 Raman Activ --      3.4198                14.3721                 0.6271

                     16                     17                     18
                      A                      A                      A
 Frequencies --    903.5599               946.7713               963.9292
 Red. masses --      3.0894                 2.5469                 2.6654
 Frc consts  --      1.4861                 1.3451                 1.4591
 IR Inten    --     60.7665                18.0178                32.4928
 Raman Activ --      6.4406                 6.0303                 5.2628

                     19                     20                     21
                      A                      A                      A
 Frequencies --   1027.9236              1075.4979              1084.3638
 Red. masses --      2.5212                 1.1979                 4.4576
 Frc consts  --      1.5695                 0.8164                 3.0882
 IR Inten    --     20.4234                 0.2588                51.1107
 Raman Activ --      3.4492                 0.0183                 6.0270

                     22                     23                     24
                      A                      A                      A
 Frequencies --   1086.4888              1141.7756              1171.7318
 Red. masses --      1.2881                 1.3599                 1.4499
 Frc consts  --      0.8959                 1.0445                 1.1728
 IR Inten    --      0.3537                 1.6386                 0.2168
 Raman Activ --      0.1183                 3.1215                 2.3682

                     25                     26                     27
                      A                      A                      A
 Frequencies --   1228.0985              1231.8276              1267.8833
 Red. masses --      1.3101                 1.2782                 1.7119
 Frc consts  --      1.1641                 1.1428                 1.6214
 IR Inten    --      4.9038                27.5108                16.5194
 Raman Activ --      0.6251                 3.2707                 1.8945

                     28                     29                     30
                      A                      A                      A
 Frequencies --   1295.9472              1298.7807              1355.2641
 Red. masses --      1.9866                 1.3475                 1.2564
 Frc consts  --      1.9658                 1.3392                 1.3596
 IR Inten    --      0.2507                 0.0289                 3.4978
 Raman Activ --      0.0315                 5.0518                 5.8694

                     31                     32                     33
                      A                      A                      A
 Frequencies --   1387.2380              1446.4813              1449.7669
 Red. masses --      1.3184                 1.1621                 1.1451
 Frc consts  --      1.4949                 1.4326                 1.4180
 IR Inten    --      1.7061                 5.0958                 5.7934
 Raman Activ --      0.2598                 0.9966                 0.6860

                     34                     35                     36
                      A                      A                      A
 Frequencies --   1467.2192              1478.5776              1479.6461
 Red. masses --      1.3428                 1.0950                 1.0448
 Frc consts  --      1.7032                 1.4104                 1.3477
 IR Inten    --      0.6121                 0.4412                 0.3329
 Raman Activ --      1.6999                 0.2582                 1.0717

                     37                     38                     39
                      A                      A                      A
 Frequencies --   1488.4377              1490.7728              1503.2673
 Red. masses --      1.0392                 1.0953                 1.1012
 Frc consts  --      1.3565                 1.4342                 1.4662
 IR Inten    --      0.3851                 2.3588                 1.3828
 Raman Activ --      9.2423                 7.1992                12.5524

                     40                     41                     42
                      A                      A                      A
 Frequencies --   1513.3596              1516.1053              1524.3565
 Red. masses --      1.0563                 1.0710                 1.0654
 Frc consts  --      1.4254                 1.4504                 1.4586
 IR Inten    --     30.5010                41.5680                44.2685
 Raman Activ --      4.3710                 0.2999                 0.9539

                     43                     44                     45
                      A                      A                      A
 Frequencies --   1532.9958              3003.8685              3040.9111
 Red. masses --      1.0828                 1.0542                 1.1085
 Frc consts  --      1.4992                 5.6043                 6.0394
 IR Inten    --     12.6054                38.4823                23.8126
 Raman Activ --      3.0046                84.5802                53.9377

                     46                     47                     48
                      A                      A                      A
 Frequencies --   3071.1876              3073.6731              3077.8560
 Red. masses --      1.0309                 1.0315                 1.0370
 Frc consts  --      5.7289                 5.7415                 5.7882
 IR Inten    --      0.4198                 1.4506                 1.5614
 Raman Activ --     12.3218                 1.5566               137.2657

                     49                     50                     51
                      A                      A                      A
 Frequencies --   3084.7877              3139.5417              3162.4351
 Red. masses --      1.0531                 1.1101                 1.1084
 Frc consts  --      5.9042                 6.4469                 6.5314
 IR Inten    --      1.1893                 1.7361                 0.1070
 Raman Activ --    238.3573                16.6152                10.9528

                     52                     53                     54
                      A                      A                      A
 Frequencies --   3163.1938              3168.9480              3169.3898
 Red. masses --      1.1089                 1.1081                 1.1080
 Frc consts  --      6.5375                 6.5565                 6.5577
 IR Inten    --      0.0894                 1.1155                 1.3580
 Raman Activ --      8.2009                58.4670                71.9420

                     55                     56                     57
                      A                      A                      A
 Frequencies --   3174.3308              3178.8400              3836.7265
 Red. masses --      1.1081                 1.1073                 1.0674
 Frc consts  --      6.5788                 6.5923                 9.2573
 IR Inten    --      0.0802                 1.9658               104.5959
 Raman Activ --     21.8522                53.6306               118.5299

 - Thermochemistry -
 -------------------
 Temperature   298.150 Kelvin.  Pressure   1.00000 Atm.
 Atom     1 has atomic number  6 and mass  12.00000

 Molecular mass:   104.10754 amu.
 Principal axes and moments of inertia in atomic units:
                           1         2         3
     Eigenvalues --   423.200391243.041411264.31558
           X            0.88447   0.31536  -0.34390
           Y            0.45084  -0.38769   0.80401
           Z           -0.12023   0.86617   0.48507
 This molecule is an asymmetric top.
 Rotational symmetry number  1.
 Rotational temperatures (Kelvin)      0.20466     0.06968     0.06851
 Rotational constants (GHZ):           4.26451     1.45188     1.42745
 Zero-point vibrational energy     515362.4 (Joules/Mol)
                                  123.17457 (Kcal/Mol)
 Warning -- explicit consideration of  13 degrees of freedom as
           vibrations may cause significant error
 Vibrational temperatures:     45.68   139.51   294.42   326.98   351.63
          (Kelvin)            399.31   425.34   489.44   512.81   530.59
                              646.73   659.41   764.71  1094.33  1172.10
                             1300.02  1362.19  1386.88  1478.95  1547.40
                             1560.16  1563.21  1642.76  1685.86  1766.96
                             1772.32  1824.20  1864.58  1868.65  1949.92
                             1995.92  2081.16  2085.89  2111.00  2127.34
                             2128.88  2141.53  2144.89  2162.86  2177.38
                             2181.33  2193.21  2205.64  4321.89  4375.19
                             4418.75  4422.32  4428.34  4438.32  4517.09
                             4550.03  4551.12  4559.40  4560.04  4567.15
                             4573.64  5520.19

 Zero-point correction=                           0.196291 (Hartree/Particle)
 Thermal correction to Energy=                    0.205572
 Thermal correction to Enthalpy=                  0.206517
 Thermal correction to Gibbs Free Energy=         0.162364
 Sum of electronic and zero-point Energies=           -328.585729
 Sum of electronic and thermal Energies=              -328.576448
 Sum of electronic and thermal Enthalpies=            -328.575504
 Sum of electronic and thermal Free Energies=         -328.619657

                     E (Thermal)             CV                S
                      KCal/Mol        Cal/Mol-Kelvin    Cal/Mol-Kelvin
 Total                  128.999             33.681             92.928
 Electronic               0.000              0.000              0.000
 Translational            0.889              2.981             39.838
 Rotational               0.889              2.981             27.988
 Vibrational            127.221             27.720             25.101
 Vibration     1          0.594              1.983              5.717
 Vibration     2          0.603              1.951              3.514
 Vibration     3          0.640              1.833              2.091
 Vibration     4          0.651              1.799              1.900
 Vibration     5          0.660              1.772              1.771
 Vibration     6          0.679              1.715              1.549
 Vibration     7          0.690              1.682              1.442
 Vibration     8          0.720              1.595              1.211
 Vibration     9          0.732              1.562              1.138
 Vibration    10          0.741              1.536              1.085
 Vibration    11          0.808              1.362              0.797
 Vibration    12          0.816              1.343              0.771
 Vibration    13          0.886              1.180              0.584

 Normal termination of Gaussian 09 at Fri Aug 19 02:57:00 2022.
