 Gaussian 09, Revision D.01,
 Gaussian 09:  ES64L-G09RevD.01 24-Apr-2013

 ----------------------------------------------------------------------
 #p opt=restart freq=(restart,raman,savenormalmodes) b3lyp/6-311+g(d,p)
  nosymm int=(grid=ultrafine) guess=restart scf=(xqc,maxconventionalcyc
 les=2048,tight)
 ----------------------------------------------------------------------

 Optimization completed.
    -- Stationary point found.
 SCF Done:  E(RB3LYP) =  -4861.72085015     A.U. after    3 cycles

 Alpha  occ. eigenvalues -- -101.55652 -89.04438 -88.83292 -19.17263 -19.17256
 Alpha  occ. eigenvalues --  -19.12073 -19.12064 -19.11676 -19.11503 -19.10738
 Alpha  occ. eigenvalues --  -19.09018 -19.09012 -19.08861 -19.06414 -19.05910
 Alpha  occ. eigenvalues --  -14.45997 -14.45933 -14.31571 -10.31482 -10.30903
 Alpha  occ. eigenvalues --  -10.25287 -10.24743 -10.24291 -10.23931 -10.23748
 Alpha  occ. eigenvalues --  -10.23746 -10.23504 -10.23240 -10.23076 -10.23057
 Alpha  occ. eigenvalues --  -10.22947 -10.22656 -10.22531 -10.22511 -10.22437
 Alpha  occ. eigenvalues --  -10.22255 -10.22128 -10.21637 -10.21042 -10.20386
 Alpha  occ. eigenvalues --  -10.20181 -10.19924 -10.19834 -10.19711 -10.19454
 Alpha  occ. eigenvalues --  -10.19389 -10.19321 -10.19008 -10.18913 -10.18825
 Alpha  occ. eigenvalues --  -10.18511 -10.18406 -10.18368 -10.18346 -10.18235
 Alpha  occ. eigenvalues --  -10.18158 -10.18037 -10.17954 -10.17932 -10.17720
 Alpha  occ. eigenvalues --  -10.17440 -10.17417 -10.17137 -10.17127 -10.17108
 Alpha  occ. eigenvalues --  -10.17060 -10.17057 -10.16996 -10.16854 -10.16720
 Alpha  occ. eigenvalues --  -10.16398 -10.16380 -10.16332 -10.16245 -10.16213
 Alpha  occ. eigenvalues --  -10.16056 -10.15984 -10.15957 -10.15881 -10.15652
 Alpha  occ. eigenvalues --  -10.15534 -10.15380 -10.14668  -9.47110  -8.10348
 Alpha  occ. eigenvalues --   -7.91916  -7.23567  -7.22598  -7.22557  -6.06609
 Alpha  occ. eigenvalues --   -6.06600  -6.06528  -5.88307  -5.87943  -5.87286
 Alpha  occ. eigenvalues --   -1.11674  -1.11486  -1.10711  -1.03521  -1.03430
 Alpha  occ. eigenvalues --   -1.02984  -1.02724  -1.02707  -1.02592  -1.01937
 Alpha  occ. eigenvalues --   -1.01069  -0.97380  -0.97019  -0.96003  -0.93427
 Alpha  occ. eigenvalues --   -0.89666  -0.87591  -0.86377  -0.86155  -0.84808
 Alpha  occ. eigenvalues --   -0.83737  -0.82985  -0.82712  -0.81934  -0.81590
 Alpha  occ. eigenvalues --   -0.80327  -0.79303  -0.79008  -0.78871  -0.78323
 Alpha  occ. eigenvalues --   -0.77794  -0.77591  -0.77126  -0.76830  -0.76586
 Alpha  occ. eigenvalues --   -0.76338  -0.75972  -0.75461  -0.75199  -0.75071
 Alpha  occ. eigenvalues --   -0.74098  -0.73854  -0.73468  -0.73004  -0.72910
 Alpha  occ. eigenvalues --   -0.72059  -0.71886  -0.69660  -0.69653  -0.68517
 Alpha  occ. eigenvalues --   -0.68058  -0.67898  -0.66830  -0.66501  -0.65643
 Alpha  occ. eigenvalues --   -0.64289  -0.63895  -0.62761  -0.62631  -0.62576
 Alpha  occ. eigenvalues --   -0.62332  -0.62111  -0.61601  -0.61492  -0.61417
 Alpha  occ. eigenvalues --   -0.60184  -0.59534  -0.59345  -0.58795  -0.58456
 Alpha  occ. eigenvalues --   -0.58193  -0.57803  -0.57422  -0.56933  -0.56926
 Alpha  occ. eigenvalues --   -0.56098  -0.55680  -0.55146  -0.54638  -0.54321
 Alpha  occ. eigenvalues --   -0.53989  -0.53912  -0.53588  -0.53193  -0.53042
 Alpha  occ. eigenvalues --   -0.52614  -0.52217  -0.51989  -0.51719  -0.51566
 Alpha  occ. eigenvalues --   -0.51456  -0.51144  -0.51007  -0.50475  -0.49658
 Alpha  occ. eigenvalues --   -0.49216  -0.48878  -0.48833  -0.48744  -0.48412
 Alpha  occ. eigenvalues --   -0.47839  -0.47824  -0.47628  -0.47451  -0.47381
 Alpha  occ. eigenvalues --   -0.47342  -0.47120  -0.46555  -0.46453  -0.46270
 Alpha  occ. eigenvalues --   -0.45939  -0.45903  -0.45814  -0.45710  -0.45656
 Alpha  occ. eigenvalues --   -0.45508  -0.45278  -0.45109  -0.44884  -0.44707
 Alpha  occ. eigenvalues --   -0.44586  -0.44286  -0.44242  -0.44012  -0.43827
 Alpha  occ. eigenvalues --   -0.43751  -0.43579  -0.43449  -0.43327  -0.43286
 Alpha  occ. eigenvalues --   -0.43077  -0.43060  -0.42887  -0.42657  -0.42494
 Alpha  occ. eigenvalues --   -0.42402  -0.42345  -0.42260  -0.42250  -0.42012
 Alpha  occ. eigenvalues --   -0.41858  -0.41763  -0.41699  -0.41640  -0.41493
 Alpha  occ. eigenvalues --   -0.41384  -0.41231  -0.41183  -0.41068  -0.40778
 Alpha  occ. eigenvalues --   -0.40671  -0.40414  -0.40324  -0.40228  -0.40040
 Alpha  occ. eigenvalues --   -0.39837  -0.39467  -0.39383  -0.39175  -0.39008
 Alpha  occ. eigenvalues --   -0.38888  -0.38679  -0.38449  -0.38411  -0.38394
 Alpha  occ. eigenvalues --   -0.38253  -0.38099  -0.37732  -0.37703  -0.37565
 Alpha  occ. eigenvalues --   -0.37446  -0.37068  -0.36807  -0.36464  -0.36278
 Alpha  occ. eigenvalues --   -0.36246  -0.36240  -0.36025  -0.35977  -0.35873
 Alpha  occ. eigenvalues --   -0.35780  -0.35201  -0.35071  -0.35002  -0.34736
 Alpha  occ. eigenvalues --   -0.34610  -0.34550  -0.34440  -0.34389  -0.34068
 Alpha  occ. eigenvalues --   -0.33958  -0.33694  -0.33689  -0.33426  -0.33353
 Alpha  occ. eigenvalues --   -0.33315  -0.33247  -0.33083  -0.32762  -0.32688
 Alpha  occ. eigenvalues --   -0.32403  -0.32377  -0.32016  -0.31975  -0.31773
 Alpha  occ. eigenvalues --   -0.31750  -0.30823  -0.30820  -0.30476  -0.30342
 Alpha  occ. eigenvalues --   -0.30013  -0.29901  -0.29386  -0.29042  -0.28893
 Alpha  occ. eigenvalues --   -0.28716  -0.28220  -0.28119  -0.27968  -0.27741
 Alpha  occ. eigenvalues --   -0.27323  -0.27099  -0.27058  -0.26052  -0.25457
 Alpha  occ. eigenvalues --   -0.25408  -0.24976  -0.24707  -0.24276  -0.23804
 Alpha  occ. eigenvalues --   -0.22983  -0.22414  -0.22161
 Alpha virt. eigenvalues --   -0.08264  -0.05780  -0.02843  -0.02063  -0.01932
 Alpha virt. eigenvalues --   -0.01601  -0.01538  -0.01466  -0.01063  -0.00914
 Alpha virt. eigenvalues --   -0.00769  -0.00602  -0.00322  -0.00057  -0.00024

 Mulliken charges:
               1
     1  C   -0.381806
     2  H    0.173849
     3  H    0.291929
     4  H    0.182760
     5  N   -0.096483
     6  C   -0.312743
     7  H    0.179218
     8  H    0.179613
     9  H    0.286780
    10  C   -0.262624
    11  H    0.258298
    12  H    0.206074
    13  H    0.175648
    14  C   -0.610691
    15  H    0.235400
    16  H    0.249739
    17  C   -0.164697
    18  H    0.166088
    19  H    0.138976
    20  O   -0.178811
    21  H    0.252327
    22  C   -0.368396
    23  H    0.152366
    24  H    0.160893
    25  H    0.153942
    26  C    0.281888
    27  C   -0.554122
    28  H    0.146836
    29  H    0.161895
    30  H    0.141766
    31  C    0.099753
    32  C   -0.145591
    33  H    0.124304
    34  C   -0.465535
    35  H    0.120724
    36  C   -0.458893
    37  H    0.120229
    38  C   -0.196346
    39  H    0.113663
    40  C    0.678549
    41  C   -0.196579
    42  H    0.151249
    43  H    0.112738
    44  C   -1.458102
    45  H    0.159721
    46  H    0.181019
    47  C    0.328609
    48  H    0.174879
    49  C    0.504637
    50  C   -0.153165
    51  H    0.148670
    52  C   -0.292042
    53  H    0.139888
    54  C   -0.740898
    55  H    0.115930
    56  C    0.767004
    57  C   -0.500647
    58  H    0.121566
    59  C    0.015160
    60  H    0.120043
    61  C   -0.305444
    62  H    0.124272
    63  C    0.646543
    64  N    0.134013
    65  C   -1.785031
    66  C    1.197934
    67  C   -0.014310
    68  H    0.126651
    69  C   -0.329544
    70  H    0.149678
    71  C    0.612895
    72  C   -0.375712
    73  H    0.152408
    74  Cl   0.410363
    75  C   -0.610003
    76  H    0.126337
    77  C   -0.504224
    78  H    0.130282
    79  S    0.457767
    80  C   -1.644195
    81  H    0.196046
    82  H    0.245257
    83  C    1.069126
    84  C   -0.268112
    85  H    0.148100
    86  H    0.141554
    87  C   -0.359589
    88  H    0.160160
    89  H    0.162564
    90  C   -0.681085
    91  H    0.139476
    92  H    0.155654
    93  C   -0.062304
    94  O   -0.413180
    95  O   -0.247781
    96  O   -0.200495
    97  H    0.211597
    98  C   -0.614739
    99  H    0.138336
   100  H    0.133754
   101  H    0.133990
   102  C   -0.371283
   103  H    0.136264
   104  H    0.136432
   105  C   -0.044564
   106  H    0.132659
   107  H    0.140782
   108  C   -0.908956
   109  H    0.142089
   110  H    0.140451
   111  C    0.838317
   112  H    0.181574
   113  C   -0.107426
   114  H    0.122583
   115  H    0.156986
   116  C   -0.618563
   117  H    0.120056
   118  H    0.138784
   119  H    0.159690
   120  C   -0.381773
   121  H    0.169941
   122  H    0.168846
   123  O    0.170086
   124  C   -0.866124
   125  O   -0.190460
   126  C    0.000195
   127  H    0.203667
   128  H    0.250976
   129  C   -0.197291
   130  H    0.280785
   131  C   -0.487551
   132  O   -0.149320
   133  O    0.157174
   134  C   -0.524173
   135  H    0.172509
   136  H    0.164769
   137  C    0.767940
   138  H    0.137120
   139  C   -0.217543
   140  H    0.180166
   141  H    0.134185
   142  C   -0.618572
   143  H    0.143778
   144  H    0.142391
   145  H    0.129669
   146  C   -0.614389
   147  H    0.135668
   148  H    0.141635
   149  C   -0.170200
   150  H    0.124526
   151  H    0.137328
   152  C   -0.247918
   153  H    0.135912
   154  H    0.136560
   155  C   -0.613587
   156  H    0.134230
   157  H    0.138993
   158  H    0.133977
   159  S   -0.604648
   160  O    0.017579
   161  O    0.036706
   162  O    0.024477
   163  C   -0.376817
   164  H    0.249727
   165  H    0.188421
   166  H    0.258422
   167  N   -0.285474
   168  C   -0.451894
   169  H    0.245166
   170  H    0.308812
   171  H    0.188372
   172  C   -0.406073
   173  H    0.190064
   174  H    0.201645
   175  H    0.255476
   176  C   -0.037631
   177  H    0.223330
   178  H    0.191654
   179  C   -0.460053
   180  H    0.168345
   181  H    0.205907
   182  O   -0.280121
   183  H    0.313151
 Sum of Mulliken charges =   0.00000

 Dipole moment (field-independent basis, Debye):
    X=             -5.8279    Y=              1.4287    Z=             -0.7398  Tot=              6.0459
 Quadrupole moment (field-independent basis, Debye-Ang):
   XX=           -596.2318   YY=           -549.7035   ZZ=           -523.3691
   XY=              2.6386   XZ=             26.5789   YZ=             14.9949

 Optimization completed.
    -- Stationary point found.

                          Input orientation:
 ---------------------------------------------------------------------
 Center     Atomic      Atomic             Coordinates (Angstroms)
 Number     Number       Type             X           Y           Z
 ---------------------------------------------------------------------
      1          6           0        0.192450   -2.488405   -4.017036
      2          1           0       -0.765159   -2.105797   -4.370047
      3          1           0        0.160638   -2.723739   -2.952442
      4          1           0        0.460520   -3.374019   -4.588908
      5          7           0        1.232274   -1.423159   -4.235934
      6          6           0        1.498510   -1.231736   -5.702622
      7          1           0        0.557368   -0.987423   -6.195577
      8          1           0        1.895959   -2.159030   -6.111457
      9          1           0        2.217791   -0.420398   -5.817688
     10          6           0        0.719440   -0.129031   -3.656460
     11          1           0        1.514513    0.614365   -3.688710
     12          1           0        0.425200   -0.318509   -2.625321
     13          1           0       -0.140665    0.194088   -4.242812
     14          6           0        2.522779   -1.760908   -3.493361
     15          1           0        2.257289   -1.725742   -2.438710
     16          1           0        3.225182   -0.969620   -3.745118
     17          6           0        3.136493   -3.139698   -3.764007
     18          1           0        3.560375   -3.206828   -4.769671
     19          1           0        2.386199   -3.930738   -3.650868
     20          8           0        4.196384   -3.324933   -2.848747
     21          1           0        3.815161   -3.300972   -1.925902
     22          6           0        4.636087  -10.807764    3.808846
     23          1           0        4.591983   -9.824129    3.345097
     24          1           0        5.675577  -11.142053    3.826879
     25          1           0        4.285765  -10.718986    4.839641
     26          6           0        3.774608  -11.841433    3.073455
     27          6           0        2.280314  -11.469077    3.084697
     28          1           0        2.060017  -10.553949    2.536956
     29          1           0        1.949725  -11.340167    4.118358
     30          1           0        1.691366  -12.271637    2.628010
     31          6           0        4.281532  -12.112774    1.631935
     32          6           0        4.737856  -13.406078    1.334313
     33          1           0        4.783863  -14.135124    2.131372
     34          6           0        5.156404  -13.776427    0.060547
     35          1           0        5.501706  -14.788316   -0.120588
     36          6           0        5.123772  -12.843350   -0.969141
     37          1           0        5.429152  -13.112176   -1.974222
     38          6           0        4.699311  -11.551273   -0.687922
     39          1           0        4.681273  -10.817337   -1.488216
     40          6           0        4.291841  -11.150228    0.593666
     41          6           0        3.931888   -9.677576    0.734965
     42          1           0        3.250094   -9.409666   -0.081007
     43          1           0        3.396099   -9.466988    1.655035
     44          6           0        5.168753   -8.759477    0.652952
     45          1           0        5.713020   -8.969432   -0.272575
     46          1           0        5.862069   -8.995782    1.467150
     47          6           0        4.844203   -7.250834    0.663436
     48          1           0        4.032512   -7.063219   -0.043635
     49          6           0        6.039918   -6.417493    0.243237
     50          6           0        6.006865   -5.705830   -0.957155
     51          1           0        5.108801   -5.695973   -1.564084
     52          6           0        7.127384   -4.987987   -1.386607
     53          1           0        7.078036   -4.446448   -2.324453
     54          6           0        8.285319   -4.966460   -0.624785
     55          1           0        9.148478   -4.415719   -0.979969
     56          6           0        8.342548   -5.659713    0.600807
     57          6           0        7.208779   -6.375352    1.010730
     58          1           0        7.235103   -6.898283    1.961106
     59          6           0        9.524272   -5.666587    1.466875
     60          1           0        9.412833   -6.270548    2.363586
     61          6           0       10.682556   -5.012499    1.260805
     62          1           0       10.819064   -4.395137    0.379294
     63          6           0       11.858653   -5.019815    2.133149
     64          7           0       12.861992   -4.244776    1.738303
     65          6           0       13.992151   -4.189189    2.490631
     66          6           0       14.151498   -4.934929    3.697749
     67          6           0       15.359517   -4.824021    4.425957
     68          1           0       15.479581   -5.391697    5.342705
     69          6           0       16.376270   -4.009514    3.986207
     70          1           0       17.302056   -3.921163    4.539589
     71          6           0       16.204106   -3.277824    2.790136
     72          6           0       15.051412   -3.353472    2.050184
     73          1           0       14.922551   -2.792436    1.134301
     74         17           0       17.520333   -2.243659    2.249767
     75          6           0       13.065455   -5.756415    4.093252
     76          1           0       13.143462   -6.344400    5.002115
     77          6           0       11.934594   -5.802538    3.326853
     78          1           0       11.103955   -6.431216    3.619872
     79         16           0        4.198863   -6.787058    2.345885
     80          6           0        3.514526   -5.110004    2.034842
     81          1           0        3.722373   -4.547631    2.950603
     82          1           0        4.098978   -4.654229    1.235293
     83          6           0        2.025346   -4.992753    1.712512
     84          6           0        1.026349   -5.787676    2.518783
     85          1           0        1.410420   -6.491481    3.248824
     86          1           0        0.096167   -5.305635    2.797271
     87          6           0        1.260642   -6.119090    1.061507
     88          1           0        0.497255   -5.850867    0.340518
     89          1           0        1.783440   -7.043921    0.851471
     90          6           0        1.615844   -3.568926    1.318736
     91          1           0        2.072485   -2.858562    2.019703
     92          1           0        0.532591   -3.465130    1.398826
     93          6           0        2.023474   -3.181632   -0.112836
     94          8           0        3.277661   -3.091905   -0.349162
     95          8           0        1.117427   -2.977862   -0.949829
     96          8           0        3.917257  -13.023745    3.887437
     97          1           0        3.235570  -13.655254    3.632861
     98          6           0       13.314766    2.293030   -3.381257
     99          1           0       14.387832    2.148239   -3.534469
    100          1           0       12.980049    1.547496   -2.653147
    101          1           0       13.173565    3.280064   -2.929728
    102          6           0       12.539666    2.169604   -4.696311
    103          1           0       12.728134    1.184271   -5.140224
    104          1           0       12.922524    2.903936   -5.415800
    105          6           0       11.028308    2.367233   -4.529662
    106          1           0       10.845714    3.351578   -4.083100
    107          1           0       10.645803    1.636003   -3.806522
    108          6           0       10.250894    2.221168   -5.844786
    109          1           0       10.444681    1.223038   -6.250981
    110          1           0       10.650923    2.924550   -6.589074
    111          6           0        8.724682    2.421782   -5.730984
    112          1           0        8.371220    1.932372   -4.816454
    113          6           0        7.964505    1.809304   -6.924536
    114          1           0        8.448539    2.131890   -7.856454
    115          1           0        6.950029    2.216246   -6.943709
    116          6           0        7.867311    0.281249   -6.883434
    117          1           0        8.851118   -0.197442   -6.869595
    118          1           0        7.332546   -0.097271   -7.758971
    119          1           0        7.317019   -0.038493   -5.994634
    120          6           0        8.415842    3.914956   -5.597698
    121          1           0        8.560716    4.429551   -6.549959
    122          1           0        9.023842    4.390761   -4.829877
    123          8           0        7.014465    4.145918   -5.277206
    124          6           0        6.664973    4.198545   -3.988633
    125          8           0        7.459107    4.167481   -3.069738
    126          6           0        5.176322    4.424712   -3.811353
    127          1           0        5.003046    5.487516   -4.013431
    128          1           0        4.930059    4.262499   -2.763494
    129          6           0        4.262761    3.600530   -4.727221
    130          1           0        4.637526    3.574419   -5.749150
    131          6           0        2.825396    4.091666   -4.782458
    132          8           0        2.072250    3.880781   -5.701501
    133          8           0        2.489477    4.788225   -3.681583
    134          6           0        1.123846    5.267151   -3.603262
    135          1           0        0.448211    4.429034   -3.795642
    136          1           0        0.977173    6.004607   -4.394549
    137          6           0        0.901916    5.853516   -2.211839
    138          1           0        1.718171    6.563424   -2.022048
    139          6           0        0.967384    4.746191   -1.139377
    140          1           0        1.782535    4.061802   -1.390588
    141          1           0        0.042913    4.155674   -1.188534
    142          6           0        1.174587    5.263322    0.287934
    143          1           0        2.116829    5.814080    0.371579
    144          1           0        1.212426    4.434683    1.000528
    145          1           0        0.370821    5.931264    0.610184
    146          6           0       -0.432784    6.627440   -2.171692
    147          1           0       -0.709618    6.793574   -1.125572
    148          1           0       -1.226189    5.993749   -2.591529
    149          6           0       -0.426802    7.984906   -2.887968
    150          1           0       -0.170180    7.858702   -3.946424
    151          1           0        0.362969    8.613590   -2.456884
    152          6           0       -1.766985    8.723819   -2.790871
    153          1           0       -2.027809    8.859330   -1.734138
    154          1           0       -2.556991    8.095753   -3.220359
    155          6           0       -1.759567   10.084692   -3.493067
    156          1           0       -1.002672   10.747978   -3.062621
    157          1           0       -2.727814   10.584970   -3.404293
    158          1           0       -1.537526    9.978744   -4.559648
    159         16           0        4.275924    1.807579   -4.206049
    160          8           0        5.714349    1.537131   -3.931738
    161          8           0        3.719156    1.034065   -5.339963
    162          8           0        3.429203    1.729694   -2.976871
    163          6           0        6.221731   -0.859897   -1.683350
    164          1           0        5.579028   -1.705052   -1.925335
    165          1           0        7.263494   -1.177965   -1.653692
    166          1           0        6.088481   -0.068181   -2.418624
    167          7           0        5.855631   -0.345750   -0.311025
    168          6           0        4.395189    0.038589   -0.289917
    169          1           0        3.816310   -0.879861   -0.387005
    170          1           0        4.181805    0.719781   -1.113126
    171          1           0        4.184704    0.512814    0.669207
    172          6           0        6.067354   -1.453485    0.685256
    173          1           0        5.809812   -1.082500    1.676715
    174          1           0        7.113421   -1.755378    0.660997
    175          1           0        5.414121   -2.284112    0.419661
    176          6           0        6.738222    0.830896    0.064345
    177          1           0        7.770073    0.523073   -0.109611
    178          1           0        6.605810    0.997559    1.134969
    179          6           0        6.458528    2.115282   -0.716936
    180          1           0        5.513213    2.561332   -0.384413
    181          1           0        6.375737    1.912754   -1.786092
    182          8           0        7.542790    2.989227   -0.447855
    183          1           0        7.641043    3.556882   -1.229104
 ---------------------------------------------------------------------

 Normal termination of Gaussian 09 at Fri Sep 23 21:12:16 2022.
